<VTKFile type="UnstructuredGrid" version="1.0" byte_order="LittleEndian" header_type="UInt64">
<UnstructuredGrid>
<Piece NumberOfPoints="175" NumberOfCells="290">
<Points>
<DataArray NumberOfComponents="3" type="Float64">
0.0 0.0 0.0
1.0 0.0 0.0
1.0 1.0 0.0
0.0 1.0 0.0
0.2 0.3 0.0
0.1 0.2 0.0
0.2 0.1 0.0
0.3 0.2 0.0
0.2 0.6 0.0
0.1 0.5 0.0
0.2 0.4 0.0
0.3 0.5 0.0
0.2 0.9 0.0
0.1 0.8 0.0
0.2 0.7000000000000001 0.0
0.3 0.8 0.0
0.1292893217338323 0.2707106779711419 0.0
0.1292893220423002 0.1292893217203903 0.0
0.2707106782879816 0.129289322050672 0.0
0.2707106779777093 0.2707106782596003 0.0
0.129289321731774 0.5707106779690835 0.0
0.1292893220624422 0.4292893217002483 0.0
0.2707106782468238 0.4292893220095143 0.0
0.2707106779840935 0.5707106782532161 0.0
0.129289321731774 0.8707106779690835 0.0
0.1292893220665904 0.7292893216961001 0.0
0.2707106782359923 0.7292893219986828 0.0
0.09999999999981467 0.0 0.0
0.1999999999995579 0.0 0.0
0.2999999999992664 0.0 0.0
0.3999999999989749 0.0 0.0
0.4999999999986943 0.0 0.0
0.5999999999989468 0.0 0.0
0.69999999999921 0.0 0.0
0.7999999999994734 0.0 0.0
0.8999999999997368 0.0 0.0
1.0 0.09999999999981467 0.0
1.0 0.1999999999995579 0.0
1.0 0.2999999999992664 0.0
1.0 0.3999999999989749 0.0
1.0 0.4999999999986943 0.0
1.0 0.5999999999989468 0.0
1.0 0.69999999999921 0.0
1.0 0.7999999999994734 0.0
1.0 0.8999999999997368 0.0
0.8999999999995836 1.0 0.0
0.7999999999999998 1.0 0.0
0.7000000000006934 1.0 0.0
0.6000000000013869 1.0 0.0
0.5000000000020587 1.0 0.0
0.4000000000016644 1.0 0.0
0.3000000000012483 1.0 0.0
0.2000000000008322 1.0 0.0
0.100000000000416 1.0 0.0
0.0 0.8999999999995836 0.0
0.0 0.7999999999999998 0.0
0.0 0.7000000000006934 0.0
0.0 0.6000000000013869 0.0
0.0 0.5000000000020587 0.0
0.0 0.4000000000016644 0.0
0.0 0.3000000000012483 0.0
0.0 0.2000000000008322 0.0
0.0 0.100000000000416 0.0
0.2707106779840935 0.8707106782532161 0.0
0.5925409651549562 0.3420072046909499 0.0
0.5635473944758816 0.6592854181295394 0.0
0.7715471755782091 0.5257163898643977 0.0
0.7701084858426588 0.7645419989057967 0.0
0.4367259637743527 0.3505034892458644 0.0
0.7758917884559183 0.2089052959147431 0.0
0.4675902901295708 0.8213861468087901 0.0
0.4628204533240524 0.1905973379243615 0.0
0.4602780199181531 0.4953395367842054 0.0
0.3914747546379021 0.6528477831705132 0.0
0.8477156632552001 0.3803075440669261 0.0
0.6175661206536286 0.5018788504464026 0.0
0.6313657926808804 0.1872096286005561 0.0
0.6365988036885752 0.8482236870465834 0.0
0.858920539112119 0.6464991759625918 0.0
0.6980242466417207 0.6496150250637213 0.0
0.3909149545631215 0.8909678149561229 0.0
0.8717042667017703 0.8594341934000017 0.0
0.3901889091863771 0.1145099141075886 0.0
0.5256346085283911 0.4173469280669219 0.0
0.7020197197788601 0.4543756643553232 0.0
0.5259592160678408 0.2741346319674926 0.0
0.8746274182661706 0.1276825813291411 0.0
0.3981262948637534 0.2505047388036863 0.0
0.3318419261631507 0.346283383203008 0.0
0.3977092358405234 0.4408531757028565 0.0
0.405315837145336 0.7457498870484721 0.0
0.8697954061876918 0.4900435661581451 0.0
0.7303655398662474 0.2895228126877893 0.0
0.7093880370286114 0.1291804076950962 0.0
0.7271500063521827 0.9044382104695461 0.0
0.8890000375910533 0.2825126353136891 0.0
0.381154490918919 0.5559494905255968 0.0
0.6276304898476541 0.7422208693238374 0.0
0.554190114258003 0.1059882751708941 0.0
0.4810033426851816 0.7056646732845309 0.0
0.8856133448177259 0.7551802856547721 0.0
0.3085413597405391 0.6509914028491656 0.0
0.07928932190175617 0.6499999999381597 0.0
0.07928932190149598 0.349999999939306 0.0
0.5437851513070013 0.9035780308661291 0.0
0.470406667407676 0.602821667046803 0.0
0.4614398953532203 0.08221910544056882 0.0
0.2623564581818948 0.3549051107037451 0.0
0.5490950881303982 0.5550417976751225 0.0
0.6243616767035651 0.5951776324526088 0.0
0.5449316600020888 0.7569166080261593 0.0
0.917020800684421 0.5753546398979734 0.0
0.9272728098095826 0.3578409570598839 0.0
0.4604580792006833 0.9231863985262084 0.0
0.7755368885643377 0.6074725775678368 0.0
0.7907125762340559 0.4466603095792021 0.0
0.1487620373218806 0.3499999999602752 0.0
0.1569796208285932 0.6499999999662707 0.0
0.6550334071185092 0.2769241085300278 0.0
0.339963643067277 0.7270753100310552 0.0
0.6439396749757926 0.0743681570948166 0.0
0.3246321155826 0.9268240096575645 0.0
0.3234854049041834 0.07328268112799972 0.0
0.5523604749413619 0.2034652667142876 0.0
0.8087565268206334 0.287322703635336 0.0
0.8120099794979175 0.08922159646491729 0.0
0.6121572746192674 0.4266702484583861 0.0
0.2406693774673953 0.6500602164156545 0.0
0.4534105543305799 0.4197743903568535 0.0
0.6500000000010401 0.9321242734598782 0.0
0.3404967238946361 0.2683787897951856 0.0
0.6930979391735066 0.5468005447565614 0.0
0.2590685587137548 0.9395069375821562 0.0
0.05857864391635561 0.7414213560839318 0.0
0.05857864391320349 0.4414213560874859 0.0
0.05857864389615175 0.1414213561040206 0.0
0.1414213561134509 0.9414213561132787 0.0
0.1414213563706265 0.05857864362929677 0.0
0.05857864363837539 0.5585786436389499 0.0
0.05857864363890387 0.858578643638731 0.0
0.05857864364012118 0.2585786436406383 0.0
0.9217280751325219 0.1923952790855478 0.0
0.7004089130300333 0.2183484506856425 0.0
0.2588392166381978 0.06051440063573435 0.0
0.711403630353118 0.8025769888314344 0.0
0.4984251653727203 0.3479645933598544 0.0
0.07154822024742413 0.9284517796201128 0.0
0.07154822038481551 0.07154822024235394 0.0
0.4543614819622305 0.2857587997492692 0.0
0.9213072769157051 0.9219582494401377 0.0
0.3656097604041242 0.1901405666133722 0.0
0.794486209325714 0.694460776095406 0.0
0.9323109369228532 0.6554068203026988 0.0
0.3666141414831531 0.8123781230839731 0.0
0.8385641620253557 0.5690172698901889 0.0
0.3287738754579161 0.5910976119145359 0.0
0.3296397133978823 0.4164500766955369 0.0
0.8362578982091453 0.9200766795096699 0.0
0.5632191416128712 0.8256475026192178 0.0
0.928956775850495 0.4256384134565249 0.0
0.9398236395982774 0.847597333651574 0.0
0.3644986740877615 0.4929786217093436 0.0
0.9262858423266538 0.07448054536656142 0.0
0.5528609745185137 0.4799926513296875 0.0
0.7609127301675966 0.3739492601590769 0.0
0.8003729387127667 0.8343747261285366 0.0
0.7095481571020075 0.7214077434945096 0.0
0.635410777538677 0.669841922876838 0.0
0.3299989505565333 0.1414444967799265 0.0
0.3909320198386637 0.3137065329024372 0.0
0.384039728373859 0.3808099966176096 0.0
0.6755049394509061 0.3605748831469255 0.0
0.5914519711927098 0.2567481681006628 0.0
0.328819087908764 0.8608153100836197 0.0
0.8486534015877846 0.1887386736697914 0.0
</DataArray>
</Points>
<Cells>
<DataArray type="Int32" Name="connectivity">
73 96 105
96 72 105
86 125 162
70 80 153
125 35 162
70 90 99
90 70 153
82 30 106
89 72 161
90 73 99
30 82 122
69 93 125
67 100 165
38 95 141
93 33 125
100 67 151
75 84 131
84 75 126
71 87 150
80 50 121
69 125 174
64 83 145
80 70 113
46 47 94
72 89 128
85 64 145
93 76 120
36 141 162
114 79 131
37 38 141
84 66 131
34 35 125
83 72 128
82 71 150
71 85 148
50 80 113
31 32 98
87 71 148
19 88 107
76 98 120
141 86 162
33 34 125
15 119 153
10 4 107
99 73 105
72 96 161
91 40 111
31 98 106
72 83 163
88 19 130
65 97 110
73 90 119
100 81 165
42 43 100
94 77 144
4 10 116
11 96 155
66 114 131
36 37 141
83 64 126
99 65 110
91 74 159
66 84 115
46 94 157
98 71 106
64 85 172
91 66 115
65 99 105
97 77 158
76 93 142
77 94 129
78 100 151
74 91 115
71 82 106
96 11 161
66 91 154
130 7 150
85 71 123
119 90 153
42 100 152
93 69 142
70 104 113
11 156 161
94 144 165
94 47 129
70 99 110
48 49 104
110 97 158
71 98 123
23 11 155
97 65 167
96 73 155
100 78 152
65 105 108
15 26 119
65 108 109
22 107 156
40 91 159
98 76 123
20 102 138
16 103 140
102 25 133
103 21 134
69 92 142
48 104 129
79 109 131
95 38 112
11 22 156
74 95 112
33 93 120
107 88 156
101 26 127
23 101 127
40 41 111
14 117 127
117 8 127
95 74 124
84 126 171
104 77 129
124 69 174
144 67 165
92 69 124
73 101 155
95 124 174
102 20 117
103 16 116
25 102 117
21 103 116
101 73 119
19 7 130
149 45 157
87 130 150
30 31 106
125 86 174
105 72 108
81 100 160
22 10 107
4 19 107
56 57 102
59 60 103
100 43 160
77 97 144
98 32 120
108 75 109
26 101 119
74 112 159
45 46 157
6 28 143
13 55 133
9 58 134
5 61 135
12 52 136
28 6 137
55 13 139
58 9 138
61 5 140
52 12 132
26 14 127
8 23 127
29 30 122
156 89 161
50 51 121
2 45 149
44 2 149
20 8 117
16 4 116
10 21 116
14 25 117
101 23 155
104 49 113
79 114 151
104 70 158
79 151 166
49 50 113
38 39 112
102 57 138
103 60 140
56 102 133
59 103 134
126 64 171
108 72 163
77 104 158
32 33 120
35 1 162
1 36 162
28 29 143
81 149 157
128 68 145
39 40 159
62 0 147
53 3 146
0 27 147
3 54 146
51 52 132
92 118 142
55 56 133
58 59 134
61 62 135
52 53 136
54 55 139
60 61 140
57 58 138
27 28 137
118 64 172
25 13 133
21 9 134
17 5 135
24 12 136
6 17 137
9 20 138
13 24 139
5 16 140
17 135 147
24 136 146
139 24 146
137 17 147
83 128 145
64 118 171
47 48 129
109 75 131
118 92 171
12 63 132
166 97 167
87 148 169
41 42 152
18 6 143
91 111 154
43 44 160
79 166 167
63 15 173
111 78 154
145 68 148
128 89 170
92 124 164
124 74 164
65 109 167
68 128 170
70 110 158
78 114 154
109 79 167
18 122 168
148 68 169
7 18 168
85 145 148
63 121 132
78 111 152
118 76 142
75 108 163
115 84 164
111 41 152
141 95 174
122 18 143
74 115 164
114 66 154
114 78 151
157 94 165
151 67 166
81 157 165
121 63 173
83 126 163
112 39 159
122 82 168
76 118 172
130 87 169
126 75 163
144 97 166
123 76 172
121 51 132
29 122 143
15 153 173
80 121 173
44 149 160
149 81 160
164 84 171
85 123 172
92 164 171
135 62 147
136 53 146
54 139 146
27 137 147
88 130 169
67 144 166
156 88 170
150 7 168
86 141 174
89 156 170
88 169 170
169 68 170
82 150 168
153 80 173
</DataArray>
<DataArray type="Int32" Name="offsets">
3
6
9
12
15
18
21
24
27
30
33
36
39
42
45
48
51
54
57
60
63
66
69
72
75
78
81
84
87
90
93
96
99
102
105
108
111
114
117
120
123
126
129
132
135
138
141
144
147
150
153
156
159
162
165
168
171
174
177
180
183
186
189
192
195
198
201
204
207
210
213
216
219
222
225
228
231
234
237
240
243
246
249
252
255
258
261
264
267
270
273
276
279
282
285
288
291
294
297
300
303
306
309
312
315
318
321
324
327
330
333
336
339
342
345
348
351
354
357
360
363
366
369
372
375
378
381
384
387
390
393
396
399
402
405
408
411
414
417
420
423
426
429
432
435
438
441
444
447
450
453
456
459
462
465
468
471
474
477
480
483
486
489
492
495
498
501
504
507
510
513
516
519
522
525
528
531
534
537
540
543
546
549
552
555
558
561
564
567
570
573
576
579
582
585
588
591
594
597
600
603
606
609
612
615
618
621
624
627
630
633
636
639
642
645
648
651
654
657
660
663
666
669
672
675
678
681
684
687
690
693
696
699
702
705
708
711
714
717
720
723
726
729
732
735
738
741
744
747
750
753
756
759
762
765
768
771
774
777
780
783
786
789
792
795
798
801
804
807
810
813
816
819
822
825
828
831
834
837
840
843
846
849
852
855
858
861
864
867
870
</DataArray>
<DataArray type="UInt8" Name="types">
5
5
5
5
5
5
5
5
5
5
5
5
5
5
5
5
5
5
5
5
5
5
5
5
5
5
5
5
5
5
5
5
5
5
5
5
5
5
5
5
5
5
5
5
5
5
5
5
5
5
5
5
5
5
5
5
5
5
5
5
5
5
5
5
5
5
5
5
5
5
5
5
5
5
5
5
5
5
5
5
5
5
5
5
5
5
5
5
5
5
5
5
5
5
5
5
5
5
5
5
5
5
5
5
5
5
5
5
5
5
5
5
5
5
5
5
5
5
5
5
5
5
5
5
5
5
5
5
5
5
5
5
5
5
5
5
5
5
5
5
5
5
5
5
5
5
5
5
5
5
5
5
5
5
5
5
5
5
5
5
5
5
5
5
5
5
5
5
5
5
5
5
5
5
5
5
5
5
5
5
5
5
5
5
5
5
5
5
5
5
5
5
5
5
5
5
5
5
5
5
5
5
5
5
5
5
5
5
5
5
5
5
5
5
5
5
5
5
5
5
5
5
5
5
5
5
5
5
5
5
5
5
5
5
5
5
5
5
5
5
5
5
5
5
5
5
5
5
5
5
5
5
5
5
5
5
5
5
5
5
5
5
5
5
5
5
5
5
5
5
5
5
5
5
5
5
5
5
5
5
5
5
5
5
5
5
5
5
5
5
</DataArray>
</Cells>
<PointData Scalars="solution">
<DataArray type="Float64" Name="Real part" format="ascii">
20.0
20.0
20.0
20.0
10.72467609836316
18.69354175162457
18.539218270694565
10.123454892251571
10.502028907067517
17.62166929879639
10.449958909165069
3.971338786444357
18.534961659969586
18.692239626946094
10.782014177822566
10.120945164441475
15.831339921369059
19.3099963275463
15.340255645068563
7.723039685094516
15.551240878502247
15.559371985340245
5.773599942613248
5.756287283870476
19.308586784656153
15.82369816312925
7.731109632527274
20.0
20.0
20.0
20.0
20.0
20.0
20.0
20.0
20.0
20.0
20.0
20.0
20.0
20.0
20.0
20.0
20.0
20.0
20.0
20.0
20.0
20.0
20.0
20.0
20.0
20.0
20.0
20.0
20.0
20.0
20.0
20.0
20.0
20.0
20.0
20.0
15.329099586586581
5.081173733159988
4.799802237667135
8.043761208110352
11.319602224200707
4.526860666357433
12.188510750476846
10.091267498256492
9.59363415065763
2.8018650561307625
4.826390945742632
11.829023430660504
3.869546667263972
10.41968626460462
12.016627432691243
12.615258778789329
6.822980315602797
14.084645590655713
16.50504494956283
13.822970744091156
3.396264154357833
5.768767366289463
6.429521840850269
16.83949006248678
7.507812744280516
5.729497016697698
3.4715748870733925
7.300973856496426
12.47854707066386
8.889341618830528
13.88738008950345
15.509043460004301
14.749162273322584
3.5524304347643905
7.7187254900625835
13.904467472794817
5.7028154746956865
14.969642510055714
6.137926021663818
16.839321965008857
16.826922248314702
14.376267661078147
3.5254063207781074
15.267399692747913
7.469848439692115
3.270024757956936
4.53175266623891
7.586602674060869
15.206924122631534
16.048158748045616
15.545342232985474
8.693689050378369
8.929785836231314
13.481958921484695
13.014043569730669
7.594517739406053
7.147899895417381
15.995812199866592
16.55577709137537
16.577595182251084
9.22029215906985
11.397428152581094
16.769173129676346
4.115869102588908
8.503975572317069
3.3423728298643587
16.325756516554883
7.272592204978364
5.574588746841062
18.081651142871547
18.402333146535618
18.102280241425994
19.5170339850154
19.481404735640556
19.482787497706905
18.10194733878043
19.516379283442852
18.402802889174225
17.10702312814102
10.281581065811707
18.089169275473118
11.152090530898315
4.432069487224245
19.724308189678812
19.724872241927226
6.062658974621815
18.751837017330864
10.191600494216527
10.569688941026063
16.357103646442376
10.274936254612264
11.141280129154763
4.731411228361525
4.576181803617161
17.447202775773157
10.505101373617181
15.88753520522812
18.19338616648036
3.4452432613171062
18.783852919048353
3.1787801425854108
8.354639165925192
14.031227590011643
8.613583583448227
5.962766040277138
13.127798449379265
5.651298920095355
4.358915608828216
6.116431188889446
7.452472442035704
13.253295063501064
14.70391461827564
</DataArray>
<DataArray type="Float64" Name="Imag part" format="ascii">
0.0
0.0
0.0
0.0
0.0
0.0
0.0
0.0
0.0
0.0
0.0
0.0
0.0
0.0
0.0
0.0
0.0
0.0
0.0
0.0
0.0
0.0
0.0
0.0
0.0
0.0
0.0
0.0
0.0
0.0
0.0
0.0
0.0
0.0
0.0
0.0
0.0
0.0
0.0
0.0
0.0
0.0
0.0
0.0
0.0
0.0
0.0
0.0
0.0
0.0
0.0
0.0
0.0
0.0
0.0
0.0
0.0
0.0
0.0
0.0
0.0
0.0
0.0
0.0
0.0
0.0
0.0
0.0
0.0
0.0
0.0
0.0
0.0
0.0
0.0
0.0
0.0
0.0
0.0
0.0
0.0
0.0
0.0
0.0
0.0
0.0
0.0
0.0
0.0
0.0
0.0
0.0
0.0
0.0
0.0
0.0
0.0
0.0
0.0
0.0
0.0
0.0
0.0
0.0
0.0
0.0
0.0
0.0
0.0
0.0
0.0
0.0
0.0
0.0
0.0
0.0
0.0
0.0
0.0
0.0
0.0
0.0
0.0
0.0
0.0
0.0
0.0
0.0
0.0
0.0
0.0
0.0
0.0
0.0
0.0
0.0
0.0
0.0
0.0
0.0
0.0
0.0
0.0
0.0
0.0
0.0
0.0
0.0
0.0
0.0
0.0
0.0
0.0
0.0
0.0
0.0
0.0
0.0
0.0
0.0
0.0
0.0
0.0
0.0
0.0
0.0
0.0
0.0
0.0
0.0
0.0
0.0
0.0
0.0
0.0
</DataArray>
</PointData>
</Piece>
</UnstructuredGrid>
</VTKFile>
