<VTKFile type="UnstructuredGrid" version="1.0" byte_order="LittleEndian" header_type="UInt64">
<UnstructuredGrid>
<Piece NumberOfPoints="578" NumberOfCells="1012">
<Points>
<DataArray NumberOfComponents="3" type="Float64">
0.0 0.0 0.0
1000.0 0.0 0.0
1000.0 100.0 0.0
0.0 100.0 0.0
15.62499999999176 0.0 0.0
31.24999999998498 0.0 0.0
46.87499999997057 0.0 0.0
62.49999999995548 0.0 0.0
78.12499999995704 0.0 0.0
93.74999999996274 0.0 0.0
109.3749999999685 0.0 0.0
124.9999999999714 0.0 0.0
140.6249999999411 0.0 0.0
156.2499999999023 0.0 0.0
171.8749999998637 0.0 0.0
187.499999999825 0.0 0.0
203.1249999997862 0.0 0.0
218.7499999997476 0.0 0.0
234.3749999997089 0.0 0.0
249.9999999996702 0.0 0.0
265.6249999996649 0.0 0.0
281.2499999996705 0.0 0.0
296.8749999996763 0.0 0.0
312.499999999682 0.0 0.0
328.1249999996877 0.0 0.0
343.7499999996934 0.0 0.0
359.3749999996991 0.0 0.0
374.9999999997048 0.0 0.0
390.6249999997105 0.0 0.0
406.2499999997162 0.0 0.0
421.8749999997219 0.0 0.0
437.4999999997277 0.0 0.0
453.1249999997334 0.0 0.0
468.7499999997391 0.0 0.0
484.3749999997448 0.0 0.0
499.9999999997617 0.0 0.0
515.6249999998228 0.0 0.0
531.2499999998286 0.0 0.0
546.8749999998342 0.0 0.0
562.49999999984 0.0 0.0
578.1249999998457 0.0 0.0
593.7499999998514 0.0 0.0
609.3749999998571 0.0 0.0
624.9999999998629 0.0 0.0
640.6249999998686 0.0 0.0
656.2499999998744 0.0 0.0
671.87499999988 0.0 0.0
687.4999999998857 0.0 0.0
703.1249999998914 0.0 0.0
718.7499999998972 0.0 0.0
734.3749999999029 0.0 0.0
749.9999999999085 0.0 0.0
765.6249999999143 0.0 0.0
781.24999999992 0.0 0.0
796.8749999999258 0.0 0.0
812.4999999999313 0.0 0.0
828.1249999999371 0.0 0.0
843.7499999999428 0.0 0.0
859.3749999999486 0.0 0.0
874.9999999999543 0.0 0.0
890.62499999996 0.0 0.0
906.2499999999657 0.0 0.0
921.8749999999715 0.0 0.0
937.4999999999771 0.0 0.0
953.124999999983 0.0 0.0
968.7499999999885 0.0 0.0
984.3749999999943 0.0 0.0
1000.0 14.28571428565807 0.0
1000.0 28.57142857129822 0.0
1000.0 42.85714285697824 0.0
1000.0 57.14285714266914 0.0
1000.0 71.42857142841518 0.0
1000.0 85.71428571420758 0.0
984.375000000001 100.0 0.0
968.750000000002 100.0 0.0
953.1250000000031 100.0 0.0
937.5000000000042 100.0 0.0
921.8750000000052 100.0 0.0
906.2500000000063 100.0 0.0
890.6250000000073 100.0 0.0
875.0000000000083 100.0 0.0
859.3750000000093 100.0 0.0
843.7500000000105 100.0 0.0
828.1250000000114 100.0 0.0
812.5000000000125 100.0 0.0
796.8750000000135 100.0 0.0
781.2500000000146 100.0 0.0
765.6250000000156 100.0 0.0
750.0000000000166 100.0 0.0
734.3750000000177 100.0 0.0
718.7500000000186 100.0 0.0
703.1250000000198 100.0 0.0
687.5000000000208 100.0 0.0
671.8750000000218 100.0 0.0
656.2500000000229 100.0 0.0
640.6250000000239 100.0 0.0
625.000000000025 100.0 0.0
609.375000000026 100.0 0.0
593.7500000000271 100.0 0.0
578.1250000000281 100.0 0.0
562.5000000000291 100.0 0.0
546.8750000000302 100.0 0.0
531.2500000000312 100.0 0.0
515.6250000000323 100.0 0.0
500.0000000000222 100.0 0.0
484.3749999999677 100.0 0.0
468.7499999999687 100.0 0.0
453.1249999999698 100.0 0.0
437.4999999999708 100.0 0.0
421.8749999999718 100.0 0.0
406.2499999999729 100.0 0.0
390.624999999974 100.0 0.0
374.999999999975 100.0 0.0
359.374999999976 100.0 0.0
343.749999999977 100.0 0.0
328.1249999999782 100.0 0.0
312.4999999999791 100.0 0.0
296.8749999999802 100.0 0.0
281.2499999999812 100.0 0.0
265.6249999999823 100.0 0.0
249.9999999999834 100.0 0.0
234.3749999999843 100.0 0.0
218.7499999999854 100.0 0.0
203.1249999999865 100.0 0.0
187.4999999999875 100.0 0.0
171.8749999999885 100.0 0.0
156.2499999999895 100.0 0.0
140.6249999999906 100.0 0.0
124.9999999999917 100.0 0.0
109.3749999999927 100.0 0.0
93.74999999999375 100.0 0.0
78.12499999999477 100.0 0.0
62.49999999999579 100.0 0.0
46.87499999999693 100.0 0.0
31.24999999999784 100.0 0.0
15.62499999999898 100.0 0.0
0.0 85.71428571438722 0.0
0.0 71.42857142877445 0.0
0.0 57.14285714311527 0.0
0.0 42.85714285740099 0.0
0.0 28.57142857163159 0.0
0.0 14.2857142858158 0.0
951.4118850085833 50.34606685161976 0.0
48.68420525206449 50.21834275105929 0.0
145.491900005425 49.51088293713708 0.0
210.9560061417111 48.37258937604581 0.0
901.2714283018049 49.32711194338382 0.0
835.8182631792786 51.62741062394417 0.0
773.3182631792787 51.62741062394538 0.0
710.8182631792804 51.62741062394669 0.0
648.3182631792818 51.62741062394795 0.0
585.8182631792844 51.6274106239496 0.0
523.418993858088 51.62741062394942 0.0
460.8182631792212 51.62741062395199 0.0
273.4374999996677 49.99999999997521 0.0
398.3182631792235 51.62741062395433 0.0
335.918993858028 51.62741062394899 0.0
98.55114326905641 51.01218562535345 0.0
304.6874999998105 65.84472656237631 0.0
242.1874999996894 34.15527343744968 0.0
179.6874999998443 34.15527343744968 0.0
492.1875000000019 65.844726562489 0.0
806.1891026868107 61.48673303312611 0.0
867.1875000000083 65.84472656250418 0.0
679.6875000000203 65.84472656250443 0.0
742.1875000000168 65.8447265625047 0.0
617.1875000000256 65.84472656250566 0.0
554.687500000031 65.84472656250674 0.0
429.6874999999714 65.84472656250787 0.0
367.1874999999752 65.84472656250831 0.0
179.7640828581141 66.34506264827279 0.0
242.1874999998859 66.32690418320679 0.0
367.1874999997995 33.67309581677135 0.0
429.6874999998124 33.6730958167714 0.0
554.6874999999062 33.67309581677145 0.0
617.1874999999194 33.67309581676949 0.0
742.1874999999457 33.67309581677046 0.0
804.6874999999418 26.97889595959588 0.0
679.6874999999317 33.67309581676925 0.0
867.1874999999703 33.67309581677026 0.0
492.1874999998552 33.67309581676554 0.0
304.6874999997288 33.67309581669561 0.0
924.4387755103633 68.30506616702132 0.0
925.0488764373117 32.03443141746082 0.0
74.6042160934553 31.14819395977776 0.0
123.4036937872792 30.46222378220341 0.0
73.54890198512605 68.6115200531879 0.0
124.032333539532 69.05324228419221 0.0
972.9648514956377 72.08217407812617 0.0
27.4537893526117 27.87030463509392 0.0
974.0246297021725 26.07849754119254 0.0
25.78411499733676 73.98062713610274 0.0
148.4374999999216 24.38964843750107 0.0
210.8387839345448 26.09142377048017 0.0
211.0724881033744 74.4518148277291 0.0
273.4024333134433 74.18019552860297 0.0
335.802511896306 25.54818517226048 0.0
398.302511896326 25.54818517226826 0.0
460.802511896347 25.54818517226707 0.0
523.3025118964342 25.54818517226693 0.0
585.802511896459 25.54818517226598 0.0
648.3025118964789 25.54818517226496 0.0
897.676045245157 74.84173703095348 0.0
710.8025118965013 25.54818517226501 0.0
835.8387839347848 73.90857622950462 0.0
773.3025118965254 25.54818517226423 0.0
773.3387839347865 73.90857622950347 0.0
835.802511896543 25.54818517226344 0.0
710.8387839347903 73.90857622950436 0.0
897.3488740746222 25.86678574314474 0.0
648.3387839347939 73.90857622950527 0.0
585.8387839347982 73.90857622950575 0.0
523.5362160652495 73.90857622950043 0.0
460.8387839347411 73.90857622950257 0.0
398.3387839347432 73.9085762295073 0.0
336.0362160651849 73.9085762294823 0.0
273.4725666861976 25.81980447134848 0.0
148.0767651214348 74.46737482149314 0.0
99.01252541503722 24.69294654990374 0.0
99.9741769895931 75.80107835110373 0.0
946.5248245862417 23.6058397633033 0.0
946.7704384589118 76.58921501433281 0.0
52.20380586665828 23.1729678321642 0.0
978.8073960564648 49.99999999982369 0.0
21.19260394349664 50.00000000025813 0.0
51.83196212072406 77.05306541127725 0.0
315.8655533543979 49.15180595251247 0.0
231.0094466453131 50.84819404741074 0.0
503.3655533544649 49.15180595255793 0.0
378.3655533544106 49.15180595256443 0.0
440.8655533544106 49.15180595257322 0.0
565.8655533544779 49.15180595259037 0.0
168.3685034857435 51.90123729169648 0.0
628.3655533544783 49.15180595259863 0.0
690.8655533544783 49.15180595260674 0.0
753.3655533544776 49.15180595261717 0.0
815.8655533544803 49.15180595262521 0.0
293.5094466451951 49.15180595260048 0.0
878.5863206180095 48.11658424094652 0.0
856.0094466455187 49.15180595267253 0.0
793.5092309120953 49.95007553522229 0.0
190.8655533542951 50.84819404726402 0.0
731.0094466455173 49.15180595269074 0.0
668.5094466455145 49.15180595269949 0.0
606.0094466455156 49.15180595270918 0.0
543.5094466455165 49.15180595272032 0.0
481.0094466454541 49.15180595272395 0.0
253.3655533542018 50.84819404721362 0.0
418.5094466454485 49.15180595273839 0.0
356.009446645448 49.15180595274725 0.0
81.79500819488919 50.41639345380532 0.0
130.0750470057156 52.92244051869182 0.0
321.0431078226843 80.7637974102015 0.0
475.831892177237 80.76379741025013 0.0
163.3483448546959 18.95257336757639 0.0
255.6513098221879 21.3286956680974 0.0
193.1321980006343 21.36749842511802 0.0
505.6604025909038 78.63250157484201 0.0
225.8318921770066 19.23620258974881 0.0
788.3318921772759 80.76379741024971 0.0
883.3997460193974 80.91932421048648 0.0
725.8318921772802 80.76379741025156 0.0
663.3318921772827 80.7637974102525 0.0
693.1321980008428 78.63250157485145 0.0
853.7145974091197 78.63250157485756 0.0
818.3467126703792 78.00993107065686 0.0
755.6321980008397 78.63250157485237 0.0
600.831892177287 80.76379741025416 0.0
538.3647975323663 80.76379741025444 0.0
630.6321980008472 78.63250157485216 0.0
568.1321980008523 78.63250157485193 0.0
446.0102024676296 80.76379741024053 0.0
291.2236901774234 78.67130433184577 0.0
383.5102024676336 80.76379741024031 0.0
416.2145974090801 78.63250157486499 0.0
353.7428019991464 78.63250157486213 0.0
931.0687777673908 49.80561105671526 0.0
195.6935234249282 83.36592984523209 0.0
226.2458322109219 83.3591209990258 0.0
258.14344227713 83.32031824197986 0.0
508.1291677888617 16.64087900097271 0.0
413.70726418115 16.64087900099442 0.0
351.2072641811296 16.64087900099466 0.0
570.6291677889021 16.64087900097253 0.0
383.1291677887718 16.64087900096905 0.0
851.2072641813606 16.6408790009839 0.0
445.6291677887925 16.64087900097018 0.0
758.1291677889654 16.64087900097568 0.0
538.7072641812583 16.64087900099168 0.0
726.207264181321 16.64087900098655 0.0
695.6291677889434 16.64087900097429 0.0
633.1291677889224 16.64087900097305 0.0
663.7072641812997 16.64087900098773 0.0
[...]
<PointData Scalars="solution">
<DataArray type="Float64" Name="Real part" format="ascii">
10.0
5.258060302310229e-196
1.5654522989603048e-195
10.0
4.347721422172463
1.1826966249831707
0.1913619230096635
0.017844194203781333
0.0009455195854260876
2.8148277719434908e-05
4.6221644592094127e-07
4.317699434453581e-09
2.2449099751238147e-11
6.389722976171869e-14
6.434745312917595e-18
3.08037009788713e-21
6.156357655708988e-25
3.616694647848223e-28
9.76049268653279e-32
5.635098921006667e-35
1.7749475623240957e-38
1.0909393987540131e-41
6.429554555745166e-45
3.28926780035152e-48
1.8963816186892664e-51
7.59123986945795e-55
3.984759632510195e-58
1.7358377917567952e-61
9.535748799438825e-65
3.480286214972122e-68
1.7794533705682615e-71
7.42129537210919e-75
4.0168124069462404e-78
1.421048338384177e-81
7.19713693741763e-85
2.9525126734269166e-88
1.589004625093216e-91
5.5526494232887076e-95
2.802165707472581e-98
1.1422740702608742e-101
6.133790500955834e-105
2.1328659663696133e-108
1.0747310187961678e-111
4.369230978386919e-115
2.343978217517323e-118
8.133607792113127e-122
4.095927151189435e-125
1.6633356177283964e-128
8.919945004940993e-132
3.0926024241753467e-135
1.556992770664078e-138
6.320096411507477e-142
3.408960017604377e-145
1.1852556811174045e-148
6.102160127412365e-152
2.2341724338782925e-155
1.1722190146685962e-158
4.102567446153453e-162
2.0709769151597344e-165
8.454656186299587e-169
4.532917017010588e-172
1.5896473278059314e-175
7.459675934725359e-179
4.131071649435834e-182
1.2274944729068556e-185
6.322754222159961e-189
2.2538974649136354e-192
1.5886780076393747e-196
4.368461241729614e-195
6.710985598725805e-195
6.587338566852902e-196
1.6216380713902208e-195
5.356412173864241e-196
6.700749734346107e-192
1.7491975264980072e-188
3.3639433773932056e-185
9.172416363788117e-182
1.5394698947506412e-178
2.8426284362044434e-175
4.626915438954701e-172
1.4556352795458019e-168
2.3309818265705963e-165
5.674396015530017e-162
7.892263758816757e-159
2.4943781209514157e-155
3.6742232985597565e-152
1.1633137096668498e-148
1.5585782067734993e-145
5.552553126904333e-142
8.509562009718741e-139
2.677680518801884e-135
3.569000312407288e-132
1.2673364640491082e-128
1.9345122773736525e-125
6.050622989053787e-122
7.975274633557709e-119
2.8156174425595614e-115
4.267368282410973e-112
1.3224287845983704e-108
1.7129802864626513e-105
5.9705609590975895e-102
8.908495921976762e-99
2.719913172279737e-95
3.444815320590988e-92
1.3575185728821436e-88
2.335540141390191e-85
8.914292801802088e-82
1.4833824796157327e-78
4.827601343846579e-75
8.145185077724333e-72
2.3652414721973125e-68
4.314423956393046e-65
1.4182722988858927e-61
2.4725777212932922e-58
7.2411370053183e-55
1.3349194772137249e-51
5.114574091335136e-48
1.0070894317674558e-44
4.924693505908777e-41
1.172622892293111e-37
2.3361556474536097e-34
6.343176449344515e-31
1.3247593620825978e-27
4.578739001537312e-24
9.190301435355356e-21
2.8581778238121015e-17
6.180003587106913e-14
2.253321143918454e-11
4.309774534359436e-09
4.627035621224577e-07
2.8131808057812732e-05
0.0009456096986574356
0.01785012515613325
0.19134853112314018
1.182709905126736
4.347878003772219
10.0
10.0
10.0
10.0
10.0
10.0
3.443435399399406e-184
0.14956339812864194
3.844233230272503e-12
3.3018441430477525e-26
5.35872581482126e-175
8.294410591067506e-160
2.9388114042763364e-146
7.318381958826981e-133
1.731792347307036e-119
4.163604724053587e-106
1.0413320563972534e-92
2.1496803591662213e-79
1.6530687795223686e-39
4.657354043216324e-66
8.309593319472095e-53
8.484930222015609e-06
3.0693931760046295e-45
3.942435752884649e-32
7.728483862911364e-19
2.490509177480345e-85
1.4830231666934695e-152
1.5792069738075e-165
1.7326408544761858e-125
7.374300615341455e-139
4.09824521317875e-112
9.819750973503322e-99
7.656526285444879e-72
1.6569937131340278e-58
1.5579109926576768e-18
5.17206962550772e-32
5.8215981112744025e-59
2.1565095318150547e-72
3.082242773354653e-99
1.1687555347179407e-112
1.683127417964661e-139
7.620754635123745e-153
4.434366970465258e-126
2.1771594521992447e-166
8.147102284390038e-86
1.6184950338959272e-45
1.301477592435048e-178
1.982902997413577e-179
0.0019249482779853553
7.021972923907909e-09
0.002368650607725727
5.7667587830573696e-09
3.3505079512489766e-189
1.6995465695093661
7.703431313072199e-190
1.9744864611228452
1.243831517771231e-12
3.3872949559116583e-25
3.513827220641777e-25
1.261658668505906e-38
4.1776113697677325e-52
1.5714626001009774e-65
5.924616842622928e-79
2.2485218382684248e-92
8.524015253137008e-106
3.233972369755244e-119
3.2139508373586985e-172
1.2271841803234842e-132
7.426183411544862e-159
4.500690990584228e-146
1.864501729515563e-145
1.551624484865614e-159
4.3844114055093724e-132
6.454433277450854e-173
1.0118877430707056e-118
2.2925524856098777e-105
4.740371246055071e-92
7.080025256459592e-79
1.6769577616199526e-65
4.254651149956576e-52
1.2065614567056924e-38
1.4093254490427313e-12
7.524541318315624e-06
5.8610764065073895e-06
8.64046295882201e-184
3.2667293963072883e-183
0.09072324217569208
8.118172491061512e-191
2.8945956966414754
0.09578411469187485
8.076177906215357e-49
3.0774234105090753e-31
4.70865884807681e-89
3.3469073208995136e-62
1.373148492177176e-75
2.0214291248726226e-102
3.461396587247486e-17
7.183701582074796e-116
2.87159205852513e-129
1.155172173997896e-142
1.0785479058742816e-155
1.1920745685698446e-44
1.8053161529417016e-169
3.37850805366981e-165
1.0936593881722872e-151
7.050838572707246e-22
2.393831126870078e-138
5.816052424527395e-125
1.4272588784692151e-111
3.6025015803095284e-98
8.738752950564353e-85
2.071081493622078e-35
2.3139516313522293e-71
5.3218287870090814e-58
0.0004363484903259426
8.28875634427338e-10
8.535457763287358e-49
3.4135611314504495e-82
3.986322296399081e-15
3.8337112028630776e-35
9.935370956139727e-22
1.2646434012549522e-88
1.5784832818783088e-28
8.191770966653062e-149
5.492045473623798e-169
1.8999956705860482e-135
4.374603261229876e-122
1.1994772784864416e-128
2.005429750903661e-162
2.20262693112448e-155
5.170483557094403e-142
9.86988284769494e-109
2.1038395222935056e-95
2.7561161902007512e-115
6.1757651121656586e-102
1.0781057539743284e-75
3.7779780232763184e-42
2.866482095720844e-62
4.731095807390741e-69
1.2524012455520425e-55
3.630983156436509e-180
5.966060698384756e-22
1.2644309691273512e-28
2.504389480205523e-35
4.615524814837974e-89
6.053546508136555e-69
1.5687948391798919e-55
1.754086520600579e-102
3.157313158450468e-62
6.493888759596898e-163
1.212294666861358e-75
9.582806991935975e-143
8.772281215904121e-96
4.796902325984979e-136
2.5270955861099368e-129
6.658702683494895e-116
1.2640076351775577e-122
3.3304728616669726e-109
1.9406844229061312e-149
3.498618218358911e-156
1.334762585398465e-169
2.306913801760452e-82
8.031897640857837e-49
3.93042723239335e-42
2.7908740624000056e-15
1.022051814486369e-175
2.817709687410586e-176
1.7826543742747118e-192
6.394091065211717e-192
3.745996342364575
3.9002790136591123
2.8839387953283847e-10
2.8875279673589735e-10
0.00016810605015877563
0.00028391165948228483
1.0705939565279168e-07
8.630911755917662e-08
7.771397214106817e-180
2.815044410887103e-179
4.788717164255632
1.0218428474883922e-191
7.185169094188433e-193
5.057934115263684
1.162387406420187e-28
7.996261989897994e-49
4.080515815740583e-62
6.117508969349351e-89
1.8452297517919096e-75
1.3460310080175079e-15
2.453737211804435e-102
1.0214857823918883e-115
4.3185926527398225e-129
1.8411277113653723e-142
4.148625895429516e-156
6.264812891873519e-169
1.9641476646556447e-22
3.0936396391853875e-162
9.788577823544352e-149
2.1457959754136795e-135
5.041874043734533e-122
1.1926613636329406e-108
2.796278219934611e-95
6.140828808109504e-42
7.269566519645583e-82
1.7979711041157593e-68
3.7034787790720386e-55
9.040037415142103e-36
1.1999897966046723e-186
4.6583247116113255e-186
2.1928455894502073e-176
0.5504415450961461
0.008119176375338977
0.008300084982509025
0.5466419148468578
4.74740924013668e-176
2.2520569520411132e-35
2.098932265005296e-55
6.522293823181237e-22
7.714360532798004e-69
2.9096055886578824e-82
1.0995083566666592e-95
4.167885210537753e-109
1.580998590953511e-122
5.9999910136879715e-136
1.567336467505917e-149
7.658336309543134e-163
5.940206413216563e-42
7.930182879377374e-170
2.8615887659770325e-156
6.986739470835242e-143
1.8490563068640152e-129
4.873431007550237e-116
1.895571564584456e-28
1.2852476452045722e-102
8.982988209056887e-76
3.395892698959755e-89
2.4248761121588943e-62
6.702934915698906e-49
6.225290677817946e-15
0.029975893839718902
6.362334308965948e-07
7.129416727726378e-05
5.787088862480544e-11
7.660940001467575e-05
0.032971298024269124
1.3693460884568803e-07
4.0023626748098224e-11
0.817621618130314
2.02412849058897e-187
1.873643762867538e-186
0.3355463899561554
2.3187267094630793e-182
5.4863870537277294e-183
1.1228389920313666e-85
1.9134952068692537e-45
6.152845280559233e-126
4.26995582887758e-99
2.33501149158035e-139
7.632400258173171e-59
2.946020796733598e-72
1.6211666603520553e-112
6.179028985505757e-32
3.1809601602061796e-166
8.320067395049361e-153
1.3505206517236284e-18
6.135253089559936e-86
2.7376385362643013e-32
1.0469502620657835e-18
1.3567036170759998e-152
2.8355795260093322e-139
5.55002374709826e-59
3.1233650489764217e-99
6.313727009680989e-166
6.496188385415042e-126
1.452758651602077e-112
1.9686197189288652e-72
1.668039475102198e-45
2.5440022567687036e-175
0.009480919752037851
0.18768998826918218
3.905242499600488e-06
7.543288555778131e-186
5.963976537276347e-188
1.1427026310668176
1.3092406527785037e-12
5.17712215154547e-13
1.609489568212886e-25
2.6414279083001535e-25
6.681668579759578e-39
3.501689593343632e-52
1.3776277882631419e-65
5.291523715053038e-79
2.623499719734805e-172
2.0149535365268227e-92
7.658160428158668e-106
2.907206905480529e-119
3.005973253679597e-159
6.226030026087063e-146
1.103349972441928e-132
1.4376879375473187e-132
4.17897398245212e-146
3.27092231428343e-119
1.5645679598046084e-159
6.015189291981697e-173
7.223852572822887e-106
1.5052669483648889e-92
3.9394819060535325e-79
9.80670133236278e-66
2.967299479327252e-52
9.432140755900996e-39
4.635312815890781e-06
3.973829645918032e-183
1.4590722819208309e-182
0.06271133138354967
0.07717212395369455
2.6592209842742275e-06
2.595009041278697e-25
2.7629892945370044e-52
9.74546716254646e-66
3.592538172469032e-79
1.343014642913557e-92
5.1012768220668845e-106
1.934146484574041e-119
7.3404424370829e-133
2.585801939886996e-146
1.0467164891884313e-159
1.367282729152882e-38
6.269316784290545e-39
1.9668884766773796e-25
5.410464368761505e-159
1.6256334816700927e-172
1.913197217254148e-145
4.317239336618427e-132
1.0211274970426367e-118
2.452666911556273e-105
1.839342868758589e-78
6.0437592529055335e-92
4.054752179412647e-65
8.030559564994024e-52
7.982229589242197e-194
6.355660803829252
8.36151228691599e-179
2.61561830087809e-07
7.733493551988383e-173
2.986325963433068e-46
2.0071161998577686e-86
1.3916613625548568e-126
1.494320649835291e-59
3.296383518704825e-113
6.845585120841569e-73
2.963688895635157e-153
1.1777356577727926e-166
9.922361815745033e-100
5.915866285727707e-140
3.397071008222618e-33
1.9342216133474492e-19
1.0672793624251729e-189
3.9024772974985885e-189
5.447977603926151e-13
1.184396602222784e-08
1.7904989034661614
4.800925516611635e-13
1.9800849508036749
2.2977636529431142e-181
4.0810936587811023e-182
2.184731611015249
2.976079577796466e-190
6.043186083485924
7.873516868544689e-193
2.088271932396418e-193
5.966511167769103
0.015610477991586161
0.45602801976689955
5.24277704643693e-195
5.95675008273878
1.6948476140150527e-194
6.325058829675871
0.017103820823133394
6.915832521109056e-49
1.2585727479904307e-82
2.528577373047329e-15
3.022007955482177e-22
1.7754091899167335e-89
5.28456612159851e-29
1.0027817784536893e-35
2.0409055522907097e-149
8.169712301256897e-143
1.8717415231247018e-129
2.736161023097834e-169
4.72109320558838e-136
4.9614045608437795e-96
1.2798645783945285e-162
1.0741313067346122e-122
4.1863394107882396e-116
2.3723443657007005e-109
4.280951091226601e-156
4.389111781433646e-69
2.28957020190845e-62
9.00939452310729e-103
8.072816851025738e-76
1.3308887102805162e-55
3.538469100189044e-42
1.258733312749112e-45
2.566141589674846e-18
3.89985832863773e-85
6.7966270236022344e-152
9.990185441906885e-166
9.377050219718762e-112
1.7735409326204635e-138
2.0510161729353642e-98
4.1047670529239095e-125
1.5924287176913452e-72
1.3419523216836803e-31
4.2223986353501185e-59
0.00016260495701165696
1.6706173030262908e-51
2.083261498286443e-28
6.8571006353179585e-65
2.761476798544664e-78
1.0030726434473215e-91
4.11944369170934e-105
1.5247010637920068e-118
6.061443936321698e-132
2.4198569446900978e-145
1.5648684452994153e-158
6.887173460021408e-42
1.4859112183897968e-162
4.7738577026779576e-149
1.2274816995977291e-135
3.0363530943299917e-122
1.4591364166697554e-24
7.601419719562117e-109
1.963726922354135e-95
4.565319140152423e-82
1.1477381842867636e-68
2.80333731568133e-55
4.976200753378578e-38
2.7216503360225765e-07
1.0268150552995342e-10
3.5632179161138624e-14
5.482840825465037e-172
1.2843885396203874e-10
</DataArray>
<DataArray type="Float64" Name="Imag part" format="ascii">
0.0
0.0
0.0
0.0
0.0
0.0
0.0
0.0
0.0
0.0
0.0
0.0
0.0
0.0
0.0
0.0
0.0
0.0
0.0
0.0
0.0
0.0
0.0
0.0
0.0
0.0
0.0
0.0
0.0
0.0
0.0
0.0
0.0
0.0
0.0
0.0
0.0
0.0
0.0
0.0
0.0
0.0
0.0
0.0
0.0
0.0
0.0
0.0
0.0
0.0
0.0
0.0
0.0
0.0
0.0
0.0
0.0
0.0
0.0
0.0
0.0
0.0
0.0
0.0
0.0
0.0
0.0
0.0
0.0
0.0
0.0
0.0
0.0
0.0
0.0
0.0
0.0
0.0
0.0
0.0
0.0
0.0
0.0
0.0
0.0
0.0
0.0
0.0
0.0
0.0
0.0
0.0
0.0
0.0
0.0
0.0
0.0
0.0
0.0
0.0
0.0
0.0
0.0
0.0
0.0
0.0
0.0
0.0
0.0
0.0
0.0
0.0
0.0
0.0
0.0
0.0
0.0
0.0
0.0
0.0
0.0
0.0
0.0
0.0
0.0
0.0
0.0
0.0
0.0
0.0
0.0
0.0
0.0
0.0
0.0
0.0
0.0
0.0
0.0
0.0
0.0
0.0
0.0
0.0
0.0
0.0
0.0
0.0
0.0
0.0
0.0
0.0
0.0
0.0
0.0
0.0
0.0
0.0
0.0
0.0
0.0
0.0
0.0
0.0
0.0
0.0
0.0
0.0
0.0
0.0
0.0
0.0
0.0
0.0
0.0
0.0
0.0
0.0
0.0
0.0
0.0
0.0
0.0
0.0
0.0
0.0
0.0
0.0
0.0
0.0
0.0
0.0
0.0
0.0
0.0
0.0
0.0
0.0
0.0
0.0
0.0
0.0
0.0
0.0
0.0
0.0
0.0
0.0
0.0
0.0
0.0
0.0
0.0
0.0
0.0
0.0
0.0
0.0
0.0
0.0
0.0
0.0
0.0
0.0
0.0
0.0
0.0
0.0
0.0
0.0
0.0
0.0
0.0
0.0
0.0
0.0
0.0
0.0
0.0
0.0
0.0
0.0
0.0
0.0
0.0
0.0
0.0
0.0
0.0
0.0
0.0
0.0
0.0
0.0
0.0
0.0
0.0
0.0
0.0
0.0
0.0
0.0
0.0
0.0
0.0
0.0
0.0
0.0
0.0
0.0
0.0
0.0
0.0
0.0
0.0
0.0
0.0
0.0
0.0
0.0
0.0
0.0
0.0
0.0
0.0
0.0
0.0
0.0
0.0
0.0
0.0
0.0
0.0
0.0
0.0
0.0
0.0
0.0
0.0
0.0
0.0
0.0
0.0
0.0
0.0
0.0
0.0
0.0
0.0
0.0
0.0
0.0
0.0
0.0
0.0
0.0
0.0
0.0
0.0
0.0
0.0
0.0
0.0
0.0
0.0
0.0
0.0
0.0
0.0
0.0
0.0
0.0
0.0
0.0
0.0
0.0
0.0
0.0
0.0
0.0
0.0
0.0
0.0
0.0
0.0
0.0
0.0
0.0
0.0
0.0
0.0
0.0
0.0
0.0
0.0
0.0
0.0
0.0
0.0
0.0
0.0
0.0
0.0
0.0
0.0
0.0
0.0
0.0
0.0
0.0
0.0
0.0
0.0
0.0
0.0
0.0
0.0
0.0
0.0
0.0
0.0
0.0
0.0
0.0
0.0
0.0
0.0
0.0
0.0
0.0
0.0
0.0
0.0
0.0
0.0
0.0
0.0
0.0
0.0
0.0
0.0
0.0
0.0
0.0
0.0
0.0
0.0
0.0
0.0
0.0
0.0
0.0
0.0
0.0
0.0
0.0
0.0
0.0
0.0
0.0
0.0
0.0
0.0
0.0
0.0
0.0
0.0
0.0
0.0
0.0
0.0
0.0
0.0
0.0
0.0
0.0
0.0
0.0
0.0
0.0
0.0
0.0
0.0
0.0
0.0
0.0
0.0
0.0
0.0
0.0
0.0
0.0
0.0
0.0
0.0
0.0
0.0
0.0
0.0
0.0
0.0
0.0
0.0
0.0
0.0
0.0
0.0
0.0
0.0
0.0
0.0
0.0
0.0
0.0
0.0
0.0
0.0
0.0
0.0
0.0
0.0
0.0
0.0
0.0
0.0
0.0
0.0
0.0
0.0
0.0
0.0
0.0
0.0
0.0
0.0
0.0
0.0
0.0
0.0
0.0
0.0
0.0
0.0
0.0
0.0
0.0
0.0
0.0
0.0
0.0
0.0
0.0
0.0
0.0
0.0
0.0
0.0
0.0
0.0
0.0
0.0
0.0
0.0
0.0
0.0
0.0
0.0
0.0
0.0
0.0
0.0
0.0
0.0
0.0
0.0
0.0
0.0
0.0
0.0
0.0
0.0
0.0
0.0
0.0
0.0
0.0
0.0
0.0
0.0
0.0
0.0
0.0
0.0
0.0
0.0
0.0
0.0
0.0
0.0
0.0
0.0
0.0
0.0
0.0
0.0
0.0
0.0
0.0
0.0
0.0
0.0
0.0
0.0
0.0
0.0
0.0
0.0
0.0
</DataArray>
</PointData>
</Piece>
</UnstructuredGrid>
</VTKFile>
