<VTKFile type="UnstructuredGrid" version="1.0" byte_order="LittleEndian" header_type="UInt64">
<UnstructuredGrid>
<Piece NumberOfPoints="164" NumberOfCells="276">
<Points>
<DataArray NumberOfComponents="3" type="Float64">
0.0 0.0 0.0
100.0 0.0 0.0
100.0 100.0 0.0
0.0 100.0 0.0
50.0 66.66666666666667 0.0
33.33333333333333 50.0 0.0
50.0 33.33333333333333 0.0
66.66666666666667 50.0 0.0
41.66666665097956 64.43375672068369 0.0
35.56624325906146 58.33333331393802 0.0
35.56624328086104 41.66666664830399 0.0
41.66666668769189 35.56624325812044 0.0
58.33333335215104 35.56624328112376 0.0
64.433756743247 41.66666669006035 0.0
64.43375672042099 58.33333334947547 0.0
58.33333331156955 64.43375674230597 0.0
9.999999999961581 0.0 0.0
19.99999999991413 0.0 0.0
29.99999999986224 0.0 0.0
39.99999999984005 0.0 0.0
49.99999999982369 0.0 0.0
59.99999999980733 0.0 0.0
69.99999999983592 0.0 0.0
79.99999999989062 0.0 0.0
89.9999999999453 0.0 0.0
100.0 9.999999999961581 0.0
100.0 19.99999999991413 0.0
100.0 29.99999999986224 0.0
100.0 39.99999999984005 0.0
100.0 49.99999999982369 0.0
100.0 59.99999999980733 0.0
100.0 69.99999999983592 0.0
100.0 79.99999999989062 0.0
100.0 89.9999999999453 0.0
90.00000000007105 100.0 0.0
80.00000000014211 100.0 0.0
70.00000000021316 100.0 0.0
60.00000000025813 100.0 0.0
50.00000000025813 100.0 0.0
40.00000000025814 100.0 0.0
30.00000000021316 100.0 0.0
20.00000000014211 100.0 0.0
10.00000000007105 100.0 0.0
0.0 90.00000000007105 0.0
0.0 80.00000000014211 0.0
0.0 70.00000000021316 0.0
0.0 60.00000000025813 0.0
0.0 50.00000000025813 0.0
0.0 40.00000000025814 0.0
0.0 30.00000000021316 0.0
0.0 20.00000000014211 0.0
0.0 10.00000000007105 0.0
23.88146989984072 22.8520365747059 0.0
22.85203657774818 76.1185301041899 0.0
77.1479634266175 23.88146990289748 0.0
76.11853010113313 77.14796342357523 0.0
81.06061035922251 40.67545265232931 0.0
59.32454735055539 81.06061035863416 0.0
40.67545265082583 18.93938964059114 0.0
18.93938964117949 59.3245473520589 0.0
19.05058801078668 41.15819060895691 0.0
58.84180939198779 19.05058801175649 0.0
41.15819061212273 80.94941198861257 0.0
80.94941198764273 58.84180938882201 0.0
86.47922616922548 13.27297869979772 0.0
13.2729786990556 13.52077383050425 0.0
86.72702130106325 86.47922616889849 0.0
13.52077383083123 86.72702130180534 0.0
68.04696095793447 13.56824656699732 0.0
13.56824656583714 31.95303904326839 0.0
86.43175343307558 68.04696095091852 0.0
31.95303905028432 86.43175343423577 0.0
29.81544162282986 29.80578739463368 0.0
29.80578739643019 70.18455837956301 0.0
70.19421260632915 29.8154416251798 0.0
70.18455837721304 70.19421260453267 0.0
13.24123643905294 70.30329149919864 0.0
70.30329149653129 86.7587635614575 0.0
29.69670850414882 13.24123643785943 0.0
86.75876356265101 29.69670850681617 0.0
12.97259904731604 50.22984035236939 0.0
49.77015964947654 12.97259904756393 0.0
50.2298403544599 87.02740095195428 0.0
87.02740095170638 49.77015964738604 0.0
21.52491761742695 50.2519420306587 0.0
49.7480579709435 21.52491761767953 0.0
50.25194203136186 78.47508238172145 0.0
78.47508238146885 49.74805797024035 0.0
71.73098764227679 37.46606011519366 0.0
62.5339398874651 71.7309876410443 0.0
37.46606011330467 28.26901235795095 0.0
28.26901235918343 62.53393988935414 0.0
67.56622851913566 21.67483519376007 0.0
21.67483519175731 32.4337714817184 0.0
78.32516480748444 67.56622851520831 0.0
32.4337714856458 78.32516480948723 0.0
90.63273619286214 60.84508388905626 0.0
39.15491611170228 90.63273619388971 0.0
60.84508389985761 9.367263804799903 0.0
9.367263803772348 39.15491610090095 0.0
32.30702655818998 22.62149248114822 0.0
22.62149248271885 67.69297344487292 0.0
77.37850751941937 32.30702656048328 0.0
67.69297344257957 77.37850751784877 0.0
28.28426559429719 37.75461376392546 0.0
62.2453862368038 28.28426559567316 0.0
37.75461376608888 71.71573440683551 0.0
71.71573440545953 62.24538623464042 0.0
23.91525020650801 92.18465569786645 0.0
92.18465569694195 76.08474979431327 0.0
7.815344303441103 23.9152502021771 0.0
76.08474979864418 7.815344304365619 0.0
9.047995665553112 61.52219006780648 0.0
61.52219006480865 90.95200433463674 0.0
38.4778099359372 9.047995665287232 0.0
90.95200433490264 38.47780993893505 0.0
91.61098768778338 21.30090915150828 0.0
21.30090915038438 8.38901231200021 0.0
78.69909084979003 91.61098768784026 0.0
8.389012311943333 78.69909085091392 0.0
92.4542742494277 7.545725750549448 0.0
7.545725750129006 7.545725750155873 0.0
92.45427424994287 92.45427424991202 0.0
7.545725749671543 92.4542742503633 0.0
14.99634995744479 94.27319025000702 0.0
94.27319024958962 85.00365004259194 0.0
5.726809750525142 14.99634995661008 0.0
85.00365004342666 5.726809750942557 0.0
5.55929203645338 54.13221810417411 0.0
54.13221810348185 94.44070796338164 0.0
45.86778189798314 5.5592920367382 0.0
94.44070796309683 45.8677818986754 0.0
94.2135473142448 14.64972899994542 0.0
14.64972899901949 5.78645268563479 0.0
85.35027100109357 94.21354731432076 0.0
5.786452685558753 85.35027100201947 0.0
16.20651170268636 79.98146833077409 0.0
20.01853167021412 16.20651170191958 0.0
79.98146832987888 83.79348829739966 0.0
83.7934882981664 20.01853167110932 0.0
28.24695049709485 54.46484696437631 0.0
54.46484696443689 71.75304950095153 0.0
45.53515303731793 28.24695049719115 0.0
71.75304950085518 45.5351530372573 0.0
54.01128970366801 5.518991255672651 0.0
5.518991255944913 45.98871029761329 0.0
94.48100874450441 54.01128970030355 0.0
45.98871030097779 94.48100874423213 0.0
76.35475990139868 16.45065446917518 0.0
16.45065446753804 23.64524009995073 0.0
83.54934553240746 76.35475989628732 0.0
23.64524010506209 83.5493455340446 0.0
72.1798840057705 54.06495113070173 0.0
45.93504887011411 72.1798840062307 0.0
54.06495113155873 27.82011599412226 0.0
27.82011599366209 45.93504886925709 0.0
65.38753531616156 34.55973546144615 0.0
34.55973545979693 34.6124646845869 0.0
65.44026454042564 65.38753531439976 0.0
34.61246468634871 65.44026454207487 0.0
93.75761978562528 67.01744532308602 0.0
32.98255467833807 93.75761978684451 0.0
67.01744533356657 6.242380216720339 0.0
6.242380215501132 32.98255466785762 0.0
</DataArray>
</Points>
<Cells>
<DataArray type="Int32" Name="connectivity">
83 63 87
82 62 86
81 61 85
80 60 84
56 83 87
57 82 86
58 81 85
59 80 84
45 76 119
36 77 118
18 78 117
27 79 116
79 27 115
77 36 113
78 18 114
76 45 112
61 68 92
60 69 93
63 70 94
62 71 95
76 59 101
77 57 103
78 58 100
79 56 102
68 61 98
70 63 96
69 60 99
71 62 97
53 76 101
52 78 100
55 77 103
54 79 102
80 59 112
82 57 113
81 58 114
83 56 115
76 53 136
78 52 137
77 55 138
79 54 139
52 72 93
54 74 92
53 73 95
55 75 94
57 77 113
59 76 112
56 79 115
58 78 114
72 52 100
73 53 101
74 54 102
75 55 103
40 108 161
31 109 160
49 110 163
22 111 162
80 112 128
82 113 129
81 114 130
83 115 131
44 45 119
17 18 117
35 36 118
26 27 116
60 80 99
61 81 98
62 82 97
63 83 96
49 50 110
40 41 108
22 23 111
31 32 109
27 28 115
18 19 114
36 37 113
45 46 112
56 87 143
57 86 141
58 85 142
59 84 140
88 56 143
89 57 141
90 58 142
91 59 140
84 60 155
85 61 154
86 62 153
87 63 152
108 71 161
109 70 160
110 69 163
111 68 162
57 89 103
59 91 101
56 88 102
58 90 100
60 104 155
61 105 154
62 106 153
63 107 152
88 74 102
90 72 100
89 75 103
91 73 101
93 72 104
92 74 105
95 73 106
94 75 107
67 136 151
66 138 150
65 137 149
64 139 148
54 92 148
52 93 149
55 94 150
53 95 151
108 67 151
109 66 150
110 65 149
111 64 148
116 79 139
117 78 137
118 77 138
119 76 136
92 68 148
93 69 149
94 70 150
95 71 151
60 93 104
61 92 105
62 95 106
63 94 107
105 74 156
104 72 157
107 75 158
106 73 159
88 13 156
89 15 158
90 11 157
91 9 159
1 25 120
24 1 120
0 16 121
51 0 121
2 34 122
33 2 122
3 43 123
42 3 123
99 80 145
98 81 144
97 82 147
96 83 146
74 88 156
75 89 158
72 90 157
73 91 159
10 104 157
12 105 156
8 106 159
14 107 158
13 88 143
11 90 142
15 89 141
9 91 140
12 6 154
10 5 155
14 7 152
8 4 153
104 10 155
105 12 154
106 8 153
107 14 152
21 22 162
48 49 163
30 31 160
39 40 161
6 11 142
5 9 140
7 13 143
4 15 141
98 21 162
99 48 163
96 30 160
97 39 161
23 24 127
50 51 126
32 33 125
41 42 124
28 29 131
19 20 130
37 38 129
46 47 128
16 17 133
25 26 132
43 44 135
34 35 134
47 48 145
38 39 147
20 21 144
29 30 146
80 128 145
81 130 144
82 129 147
83 131 146
13 12 156
15 14 158
11 10 157
9 8 159
128 47 145
130 20 144
129 38 147
131 29 146
67 108 124
66 109 125
65 110 126
64 111 127
108 41 124
109 32 125
110 50 126
111 23 127
30 96 146
39 97 147
21 98 144
48 99 145
71 108 151
70 109 150
69 110 149
68 111 148
70 96 160
71 97 161
68 98 162
69 99 163
116 64 132
117 65 133
118 66 134
119 67 135
7 143 152
4 141 153
6 142 154
5 140 155
64 116 139
65 117 137
66 118 138
67 119 136
26 116 132
17 117 133
35 118 134
44 119 135
113 37 129
115 28 131
112 46 128
114 19 130
136 53 151
138 55 150
137 52 149
139 54 148
141 86 153
143 87 152
140 84 155
142 85 154
123 67 124
122 66 125
121 65 126
120 64 127
64 120 132
65 121 133
66 122 134
67 123 135
33 122 125
42 123 124
24 120 127
51 121 126
120 25 132
121 16 133
122 34 134
123 43 135
</DataArray>
<DataArray type="Int32" Name="offsets">
3
6
9
12
15
18
21
24
27
30
33
36
39
42
45
48
51
54
57
60
63
66
69
72
75
78
81
84
87
90
93
96
99
102
105
108
111
114
117
120
123
126
129
132
135
138
141
144
147
150
153
156
159
162
165
168
171
174
177
180
183
186
189
192
195
198
201
204
207
210
213
216
219
222
225
228
231
234
237
240
243
246
249
252
255
258
261
264
267
270
273
276
279
282
285
288
291
294
297
300
303
306
309
312
315
318
321
324
327
330
333
336
339
342
345
348
351
354
357
360
363
366
369
372
375
378
381
384
387
390
393
396
399
402
405
408
411
414
417
420
423
426
429
432
435
438
441
444
447
450
453
456
459
462
465
468
471
474
477
480
483
486
489
492
495
498
501
504
507
510
513
516
519
522
525
528
531
534
537
540
543
546
549
552
555
558
561
564
567
570
573
576
579
582
585
588
591
594
597
600
603
606
609
612
615
618
621
624
627
630
633
636
639
642
645
648
651
654
657
660
663
666
669
672
675
678
681
684
687
690
693
696
699
702
705
708
711
714
717
720
723
726
729
732
735
738
741
744
747
750
753
756
759
762
765
768
771
774
777
780
783
786
789
792
795
798
801
804
807
810
813
816
819
822
825
828
</DataArray>
<DataArray type="UInt8" Name="types">
5
5
5
5
5
5
5
5
5
5
5
5
5
5
5
5
5
5
5
5
5
5
5
5
5
5
5
5
5
5
5
5
5
5
5
5
5
5
5
5
5
5
5
5
5
5
5
5
5
5
5
5
5
5
5
5
5
5
5
5
5
5
5
5
5
5
5
5
5
5
5
5
5
5
5
5
5
5
5
5
5
5
5
5
5
5
5
5
5
5
5
5
5
5
5
5
5
5
5
5
5
5
5
5
5
5
5
5
5
5
5
5
5
5
5
5
5
5
5
5
5
5
5
5
5
5
5
5
5
5
5
5
5
5
5
5
5
5
5
5
5
5
5
5
5
5
5
5
5
5
5
5
5
5
5
5
5
5
5
5
5
5
5
5
5
5
5
5
5
5
5
5
5
5
5
5
5
5
5
5
5
5
5
5
5
5
5
5
5
5
5
5
5
5
5
5
5
5
5
5
5
5
5
5
5
5
5
5
5
5
5
5
5
5
5
5
5
5
5
5
5
5
5
5
5
5
5
5
5
5
5
5
5
5
5
5
5
5
5
5
5
5
5
5
5
5
5
5
5
5
5
5
5
5
5
5
5
5
5
5
5
5
5
5
5
5
5
5
5
5
5
5
5
5
5
5
</DataArray>
</Cells>
<PointData Scalars="solution">
<DataArray type="Float64" Name="Real part" format="ascii">
0.0
0.0
0.0
0.0
0.0
0.0
0.0
0.0
0.0
0.0
0.0
0.0
0.0
0.0
0.0
0.0
0.0
0.0
0.0
0.0
0.0
0.0
0.0
0.0
0.0
0.0
0.0
0.0
0.0
0.0
0.0
0.0
0.0
0.0
0.0
0.0
0.0
0.0
0.0
0.0
0.0
0.0
0.0
0.0
0.0
0.0
0.0
0.0
0.0
0.0
0.0
0.0
0.0
0.0
0.0
0.0
0.0
0.0
0.0
0.0
0.0
0.0
0.0
0.0
0.0
0.0
0.0
0.0
0.0
0.0
0.0
0.0
0.0
0.0
0.0
0.0
0.0
0.0
0.0
0.0
0.0
0.0
0.0
0.0
0.0
0.0
0.0
0.0
0.0
0.0
0.0
0.0
0.0
0.0
0.0
0.0
0.0
0.0
0.0
0.0
0.0
0.0
0.0
0.0
0.0
0.0
0.0
0.0
0.0
0.0
0.0
0.0
0.0
0.0
0.0
0.0
0.0
0.0
0.0
0.0
0.0
0.0
0.0
0.0
0.0
0.0
0.0
0.0
0.0
0.0
0.0
0.0
0.0
0.0
0.0
0.0
0.0
0.0
0.0
0.0
0.0
0.0
0.0
0.0
0.0
0.0
0.0
0.0
0.0
0.0
0.0
0.0
0.0
0.0
0.0
0.0
0.0
0.0
0.0
0.0
0.0
0.0
0.0
0.0
</DataArray>
<DataArray type="Float64" Name="Imag part" format="ascii">
0.0
0.0
0.0
0.0
0.0
0.0
0.0
0.0
0.0
0.0
0.0
0.0
0.0
0.0
0.0
0.0
0.0
0.0
0.0
0.0
0.0
0.0
0.0
0.0
0.0
0.0
0.0
0.0
0.0
0.0
0.0
0.0
0.0
0.0
0.0
0.0
0.0
0.0
0.0
0.0
0.0
0.0
0.0
0.0
0.0
0.0
0.0
0.0
0.0
0.0
0.0
0.0
0.0
0.0
0.0
0.0
0.0
0.0
0.0
0.0
0.0
0.0
0.0
0.0
0.0
0.0
0.0
0.0
0.0
0.0
0.0
0.0
0.0
0.0
0.0
0.0
0.0
0.0
0.0
0.0
0.0
0.0
0.0
0.0
0.0
0.0
0.0
0.0
0.0
0.0
0.0
0.0
0.0
0.0
0.0
0.0
0.0
0.0
0.0
0.0
0.0
0.0
0.0
0.0
0.0
0.0
0.0
0.0
0.0
0.0
0.0
0.0
0.0
0.0
0.0
0.0
0.0
0.0
0.0
0.0
0.0
0.0
0.0
0.0
0.0
0.0
0.0
0.0
0.0
0.0
0.0
0.0
0.0
0.0
0.0
0.0
0.0
0.0
0.0
0.0
0.0
0.0
0.0
0.0
0.0
0.0
0.0
0.0
0.0
0.0
0.0
0.0
0.0
0.0
0.0
0.0
0.0
0.0
0.0
0.0
0.0
0.0
0.0
0.0
</DataArray>
</PointData>
</Piece>
</UnstructuredGrid>
</VTKFile>
