<VTKFile type="UnstructuredGrid" version="1.0" byte_order="LittleEndian" header_type="UInt64">
<UnstructuredGrid>
<Piece NumberOfPoints="561" NumberOfCells="1026">
<Points>
<DataArray NumberOfComponents="3" type="Float64">
0.0 0.0 0.0
1.0 0.0 0.0
1.0 1.0 0.0
0.0 1.0 0.0
0.2 0.25 0.0
0.15 0.2 0.0
0.2 0.15 0.0
0.25 0.2 0.0
0.2 0.55 0.0
0.15 0.5 0.0
0.2 0.45 0.0
0.25 0.5 0.0
0.2 0.8500000000000001 0.0
0.15 0.8 0.0
0.2 0.75 0.0
0.25 0.8 0.0
0.5 0.25 0.0
0.45 0.2 0.0
0.5 0.15 0.0
0.55 0.2 0.0
0.5 0.55 0.0
0.45 0.5 0.0
0.5 0.45 0.0
0.55 0.5 0.0
0.5 0.8500000000000001 0.0
0.45 0.8 0.0
0.5 0.75 0.0
0.55 0.8 0.0
0.8 0.25 0.0
0.75 0.2 0.0
0.8 0.15 0.0
0.8500000000000001 0.2 0.0
0.8 0.55 0.0
0.75 0.5 0.0
0.8 0.45 0.0
0.8500000000000001 0.5 0.0
0.8 0.8500000000000001 0.0
0.75 0.8 0.0
0.8 0.75 0.0
0.8500000000000001 0.8 0.0
0.1646446608727939 0.2353553389914487 0.0
0.1646446610085513 0.1646446608727939 0.0
0.2353553391272061 0.1646446610085513 0.0
0.2353553389914487 0.2353553391272061 0.0
0.1646446608926911 0.5353553390113459 0.0
0.1646446610424293 0.464644660838916 0.0
0.2353553391217903 0.4646446610031355 0.0
0.2353553389872769 0.5353553391313779 0.0
0.1646446608926911 0.835355339011346 0.0
0.1646446610127232 0.7646446608686222 0.0
0.2353553391073089 0.7646446609886541 0.0
0.09999999999981467 0.0 0.0
0.1999999999995579 0.0 0.0
0.2999999999992664 0.0 0.0
0.3999999999989749 0.0 0.0
0.4999999999986943 0.0 0.0
0.5999999999989468 0.0 0.0
0.69999999999921 0.0 0.0
0.7999999999994734 0.0 0.0
0.8999999999997368 0.0 0.0
0.464644660838916 0.2353553389575707 0.0
0.4646446610031355 0.1646446608782098 0.0
0.5353553391313779 0.1646446610127232 0.0
0.5353553390113459 0.2353553391073089 0.0
0.4646446609191431 0.535355339037798 0.0
0.4646446610370135 0.4646446608443318 0.0
0.5353553391259621 0.4646446610073074 0.0
0.5353553390335396 0.5353553390851152 0.0
0.4646446609191431 0.835355339037798 0.0
0.4646446610073074 0.7646446608740379 0.0
1.0 0.09999999999981467 0.0
1.0 0.1999999999995579 0.0
1.0 0.2999999999992664 0.0
1.0 0.3999999999989749 0.0
1.0 0.4999999999986943 0.0
1.0 0.5999999999989468 0.0
1.0 0.69999999999921 0.0
1.0 0.7999999999994734 0.0
1.0 0.8999999999997368 0.0
0.5353553390335396 0.8353553390851153 0.0
0.7646446608686222 0.2353553389872769 0.0
0.7646446609886541 0.1646446608926911 0.0
0.8353553391313779 0.1646446610127232 0.0
0.835355339011346 0.2353553391073089 0.0
0.7646446609148848 0.5353553390335396 0.0
0.7646446609622021 0.4646446609191431 0.0
0.8353553391259622 0.4646446610073074 0.0
0.8353553390335396 0.5353553390851152 0.0
0.7646446609148848 0.8353553390335396 0.0
0.8999999999995836 1.0 0.0
0.7999999999999998 1.0 0.0
0.7000000000006934 1.0 0.0
0.6000000000013869 1.0 0.0
0.5000000000020587 1.0 0.0
0.4000000000016644 1.0 0.0
0.3000000000012483 1.0 0.0
0.2000000000008322 1.0 0.0
0.100000000000416 1.0 0.0
0.8353553390851153 0.7646446609664604 0.0
0.8353553390335396 0.8353553390851153 0.0
0.0 0.8999999999995836 0.0
0.0 0.7999999999999998 0.0
0.0 0.7000000000006934 0.0
0.0 0.6000000000013869 0.0
0.0 0.5000000000020587 0.0
0.0 0.4000000000016644 0.0
0.0 0.3000000000012483 0.0
0.0 0.2000000000008322 0.0
0.0 0.100000000000416 0.0
0.2353553389872769 0.8353553391313779 0.0
0.5353553390851152 0.7646446609664604 0.0
0.7646446609664604 0.7646446609148848 0.0
0.3433898395275172 0.3506711751366992 0.0
0.6555223459501304 0.3454869675941158 0.0
0.345221666793714 0.6526563204031345 0.0
0.6500000000000001 0.6500000000000001 0.0
0.3376521968691558 0.1382043895083632 0.0
0.1382043895133763 0.3376521967853719 0.0
0.662347803202637 0.1382043895520366 0.0
0.1382043895520382 0.6376521967973626 0.0
0.3623478031405708 0.861795610525198 0.0
0.8617956104989657 0.362347803199541 0.0
0.6376521968143625 0.8617956104085769 0.0
0.8617956104085793 0.6623478031856377 0.0
0.4577442078074788 0.351070261471894 0.0
0.35 0.4583333333333333 0.0
0.6459020038819421 0.4617868175191547 0.0
0.4583333333333332 0.65 0.0
0.5530890607669136 0.3613201225761349 0.0
0.3273703710454821 0.5577318018698613 0.0
0.6312499999999998 0.5541666666666667 0.0
0.5541666666666664 0.6687499999999998 0.0
0.2439339827500904 0.3534009741251356 0.0
0.3534009741333171 0.2439339827555447 0.0
0.645542633255165 0.2494789938936431 0.0
0.7540219891571036 0.3491277921959138 0.0
0.249952272779098 0.6530833888937803 0.0
0.3484148065846917 0.7545879643268294 0.0
0.6531222076166924 0.7497400369911574 0.0
0.7505210060732426 0.645542633241858 0.0
0.4039637890308081 0.5862884104434813 0.0
0.412084139813457 0.4119563048845528 0.0
0.5880044795246634 0.2926772259834077 0.0
0.7067067285638935 0.5871080864771689 0.0
0.4090296395354618 0.7151635620813825 0.0
0.710197217617496 0.4092669477118412 0.0
0.5705712315775688 0.6017363862836691 0.0
0.4129062502019396 0.2900031303949859 0.0
0.2875759077313267 0.4120913242586335 0.0
0.2857822245280523 0.286403119234693 0.0
0.7121827393464313 0.2851331787597786 0.0
0.7150652678408427 0.7134888166540321 0.0
0.2854198242405634 0.7144204535284502 0.0
0.596355661119427 0.4317463272007821 0.0
0.5195729035608143 0.3137550414159756 0.0
0.6814429780261859 0.5177727375312514 0.0
0.3826688547938011 0.5174013060277558 0.0
0.2742095802077177 0.5888719740076885 0.0
0.5881583496321303 0.7258694804636643 0.0
0.512916648925923 0.6130876559396792 0.0
0.4956876225771484 0.3916916101055488 0.0
0.6091203914685013 0.4955611555134115 0.0
0.3081086880202347 0.4951904105963052 0.0
0.4999999999999998 0.6913194444444444 0.0
0.05985636373714733 0.4420530910850028 0.0
0.9358864235191767 0.1421319380791616 0.0
0.2579469087763238 0.940143636305655 0.0
0.2572591731173738 0.07045208466228416 0.0
0.06411357656219142 0.1421319379513652 0.0
0.5579469089030646 0.05985636373221363 0.0
0.1421319380781085 0.06411357648234975 0.0
0.07045208466695235 0.2572591730084375 0.0
0.9295479153439864 0.4427408269776643 0.0
0.05985636373118473 0.7420530910991101 0.0
0.857868062047356 0.06411357656456783 0.0
0.9401436362836448 0.2579469088865591 0.0
0.4420530912261119 0.05985636371218914 0.0
0.1421319379601523 0.9358864234555444 0.0
0.07045208468232296 0.5572591730179106 0.0
0.06411357648701377 0.8578680619420427 0.0
0.7427408269774269 0.07045208468143335 0.0
0.9401436362796813 0.5579469088793961 0.0
0.7420530911272205 0.9401436362825517 0.0
0.9358864234788886 0.8578680620215167 0.0
0.557259173049598 0.9295479153066358 0.0
0.8578680619732905 0.9358864235092152 0.0
0.9295479153065642 0.7427408269514637 0.0
0.4427408269129883 0.9295479153609203 0.0
0.3143918185721838 0.19209726506541 0.0
0.1920972650952285 0.3143918185536934 0.0
0.685543141712359 0.1913525648670957 0.0
0.1935957104113677 0.6144796997410339 0.0
0.809504244004653 0.3856396610029235 0.0
0.3856396609623359 0.8095042440251847 0.0
0.6144796997484514 0.8064042895564912 0.0
0.8086474350951405 0.6855431417113358 0.0
0.1892629235394513 0.3860472153512443 0.0
0.3860472153840332 0.1892629235625572 0.0
0.6139842252634227 0.1894054608058127 0.0
0.1892545645570567 0.6860837355980296 0.0
0.8107370764580965 0.3139527846426451 0.0
0.3139162643942123 0.8107454354581183 0.0
0.6860472153811453 0.8107370764108126 0.0
0.8105945391657486 0.6139842252475645 0.0
0.4611414873717721 0.5920261295844056 0.0
0.64588989174686 0.4045281252147507 0.0
0.4077563014273697 0.4649729498043385 0.0
0.1352479275248563 0.4080729418485258 0.0
0.5919270581242425 0.1352479275322719 0.0
0.1352479275322713 0.7080729418757574 0.0
0.8647520724968161 0.2919270581077186 0.0
0.4080729420117861 0.1352479275090695 0.0
0.291927057990262 0.8647520725184488 0.0
0.708072941916764 0.8647520724650545 0.0
0.8647520724650537 0.5919270580832346 0.0
0.4023937232125269 0.3536208203306642 0.0
0.3541738588628671 0.4031000864928675 0.0
0.4048342686835711 0.6447434006119712 0.0
0.71316561210788 0.4653396854661837 0.0
0.2874850431956504 0.1351923300651653 0.0
0.1351923301412642 0.287485043121117 0.0
0.4125149568291094 0.8648076699653156 0.0
0.8648076698863019 0.4125149568736285 0.0
0.7125149568579259 0.1351923301736325 0.0
0.1351923301736628 0.5874850431419016 0.0
0.5874850431667454 0.8648076697977991 0.0
0.8648076697977938 0.7125149568332956 0.0
0.4669565156295485 0.2870570218847242 0.0
0.590687671546755 0.2407081407199352 0.0
0.7592918592591411 0.5906876715490426 0.0
0.628314831649785 0.604448761006592 0.0
0.2943959469377353 0.644686885458281 0.0
0.6435962868630796 0.7139205107269279 0.0
0.3541603945295475 0.6083266947287502 0.0
0.6381293107031111 0.2969749241621514 0.0
0.7033184070609535 0.6390130951465713 0.0
0.2365527442584948 0.4117538692896706 0.0
0.7538888166046027 0.2890016099317594 0.0
0.7108528717570168 0.7535478998948462 0.0
0.412428250006682 0.2451687953606375 0.0
0.3646049217394279 0.291369123885017 0.0
0.2997666023716281 0.3650313382879617 0.0
0.703282664384316 0.3560855151264761 0.0
0.358138582971924 0.7055356210530691 0.0
0.9402343666375695 0.6245829212181908 0.0
0.6754170787829508 0.9402343666380462 0.0
0.3245829211491601 0.940234366681378 0.0
0.3754170788557261 0.05976563334184509 0.0
0.6245829212382927 0.05976563334993901 0.0
0.05976563334976909 0.6754170787621089 0.0
0.9402343666753659 0.3245829212273756 0.0
0.05976563333581809 0.3754170787494793 0.0
0.6039102987483714 0.3686712308599859 0.0
0.6012930499303716 0.6517346089211749 0.0
0.2864297804870796 0.2405172437802475 0.0
0.4136086917315461 0.7616115504825639 0.0
0.2404795313617054 0.2864674927196282 0.0
0.758353287519132 0.4143267069527965 0.0
0.2830927819934522 0.761721308423855 0.0
0.2383775627313655 0.7168147508404688 0.0
0.7194341630926276 0.2412202997664903 0.0
0.7588080497214451 0.7196207455854151 0.0
0.5781661925444088 0.5462409467938331 0.0
0.5425156010469789 0.4175588442268487 0.0
0.2838157140155749 0.5421456515675847 0.0
0.5416674579335911 0.7178559517551015 0.0
0.4572520847679629 0.4146290290264605 0.0
0.4514650015977484 0.7124530617828471 0.0
0.2825175937747805 0.4632535898271452 0.0
0.419560766274629 0.545841732107458 0.0
0.5417004983287753 0.2884467063260733 0.0
0.7105882437563859 0.5409816789747722 0.0
[...]
<PointData Scalars="solution">
<DataArray type="Float64" Name="Real part" format="ascii">
0.20415449554032106
0.4781062702910271
0.5572566374845488
0.3023840029809251
0.3227194257166447
0.27355893091487576
0.28893687825882763
0.3455083145915039
0.43770100517341604
0.38078737096389537
0.4013993497736816
0.4660203757648338
0.49309842804962384
0.4636561095835218
0.504790861153284
0.5484880098593373
0.6535490905955145
0.5710002111703312
0.590681482577439
0.6754741091255079
0.7722031349314403
0.7015341488038468
0.7421224794567984
0.8082668138602521
0.789389124254925
0.7763705787581464
0.8373214398804955
0.869411619838162
0.9176022982376213
0.8776585895382752
0.8351688553965051
0.8647245732352116
1.0318099027272132
1.013912783563199
1.0047316303461333
0.9877263060028831
1.0224322129937298
1.0647933959398646
1.08551579066536
1.0312888101059214
0.29188783652984185
0.2719458409577218
0.3180433555494225
0.3426405070907579
0.40206497791700385
0.3796517788316044
0.43910652208858225
0.46221221003698143
0.46933929940430735
0.47673128596284736
0.5356792539516004
0.21025307910466184
0.236243728058075
0.27654114629002363
0.33801489854264266
0.3983837415966468
0.4426866116579709
0.48426165146682704
0.5180815529323772
0.4988026440337666
0.6070598458510219
0.5666721245959621
0.6364972712536096
0.682910808633649
0.7246570100314795
0.7013686225420186
0.7781671767023554
0.8005263463909966
0.7648468720841656
0.792793632892888
0.5062980031448925
0.5505820612770365
0.5687261974294858
0.5893250144517244
0.6241574205507789
0.6243142424564249
0.6249363640410762
0.6338930496463455
0.5902171386012732
0.8291465929355157
0.9057196290266877
0.84278089156519
0.842408275322845
0.8988251543347839
1.0298828215250853
0.9996877654745769
0.9821236883941179
1.0126885817211788
1.04265444909425
0.5867540557835387
0.6171121402781575
0.5919754172578512
0.5472077720509677
0.5148555301315036
0.45039877027080666
0.3951435636057168
0.3538928027304721
0.31731758663286436
1.052065436326947
1.0194979623883667
0.30894627662976754
0.3168570492146628
0.3077459615028506
0.2898106012753962
0.2763205895281453
0.2545042451928285
0.23093220701561182
0.21672838228994892
0.2058077279859389
0.527655043351011
0.8629001980292863
1.083609069757343
0.37985643624125787
0.5902164138292255
0.45089062357863047
0.6525026729788442
0.33047039269620954
0.2698139022545094
0.5499404263967337
0.34118414325579083
0.4857737026543567
0.6678568409117741
0.6555799526812202
0.725216174445549
0.49537839502596026
0.43790622270217194
0.6615682965454074
0.5704602490803706
0.5599277538180395
0.43860391417821076
0.6649053989811373
0.633658346043674
0.3245392356276011
0.37474521712699554
0.5853241731129095
0.6770035335242349
0.4024462903440782
0.4913647323248893
0.7021867433210518
0.7398344202329245
0.5172721005980544
0.4870337461595259
0.5617816428116058
0.7245574154697819
0.5511585700846405
0.6885797715863854
0.6412543028278528
0.44467976501627476
0.37496462226383825
0.3333657162760082
0.6571239187668863
0.7605235223867309
0.44611964949196725
0.6305133480023927
0.5451828441709439
0.7257844646380995
0.4997890331642198
0.4136641645169801
0.6851958543207374
0.6260049488566006
0.5674525840120257
0.6741361833561595
0.42699505657806935
0.6439282858569446
0.27131729882119326
0.5543037160590792
0.38806985301742125
0.2642028865086787
0.2130000711147326
0.4416091794543844
0.2212720761978825
0.2311603637257398
0.6519972741304241
0.32445470540556237
0.5400630095860879
0.5892852852028179
0.37820245746136594
0.341913223640204
0.2981443892139879
0.3263019303405465
0.5430831240050114
0.6571364691425572
0.6411923587391231
0.6480563028377616
0.572160317333051
0.641767304922462
0.6832537115605474
0.5126437485176693
0.33686828860680434
0.293320943170307
0.6290515846372401
0.375626816457074
0.7338303348505961
0.5484273011342978
0.7012393189575141
0.797438309407
0.3167970476505329
0.40549262954818655
0.5669921379381959
0.3934562015685377
0.7058899890465
0.4788981772603456
0.7559112685320265
0.7806862882503377
0.6021630746234238
0.6174581649413461
0.5313169208474119
0.29872449951823965
0.5252281899072688
0.36954509592136164
0.6837353257720007
0.4051335717715371
0.45057730062816215
0.7395978910338957
0.7578385535986685
0.4368434024072491
0.4119596972084666
0.5085981748336309
0.7840558268559248
0.30152012897157265
0.26131009806962296
0.5526810856037164
0.7239525721081354
0.6108512813028237
0.3399459646420035
0.6594455426882989
0.7755683734514993
0.5251384576832309
0.5860408102572527
0.805549590827975
0.6455370492930921
0.41805987693990865
0.6745315928306973
0.45510029793909706
0.5744226980111349
0.6942248458038405
0.36041975555711603
0.715940018304397
0.8092588216534532
0.4587685972649895
0.3880201763234595
0.3551855498316143
0.6332023714135961
0.47945644491525324
0.6417617409007209
0.5988875779019203
0.41517282531371574
0.32726227354301446
0.4649707537867985
0.30959224433140015
0.5881146103428582
0.25164527962841343
0.5757471434121613
0.6333608491449935
0.3339391052531369
0.6016326159123354
0.3161323174355689
0.7734597241247233
0.4768016801406502
0.4433399030521152
0.7055427322696181
0.8490794083948854
0.6908601266052701
0.6278975108164827
0.428483899589405
0.70035869975687
0.5603207704277416
0.6222709003941095
0.41021510304452563
0.5679356015683719
0.5706650795483355
0.7842454646144627
0.49391556074664816
0.6866130945067179
0.40456566306404657
0.7351048176958729
0.6663974033052742
0.667819540058098
0.44042399440780045
0.5508121454033648
0.6986921879205069
0.5656095512016743
0.6783932829420007
0.6156158531228053
0.6102574894274463
0.5408731586204104
0.6746028047813947
0.44711465745046725
0.6246715199812456
0.42792811027552935
0.3505986565454968
0.6595594874215888
0.24548882588628257
0.6254196842614511
0.29920601129744745
0.3102327855132649
0.5128414863672188
0.465397188969118
0.5962362533483011
0.6716418174573318
0.6260787067274255
0.4950050511957143
0.5474058805838584
0.5441546539741298
0.4641159287583491
0.6445055776777493
0.46272804809748547
0.40319657366348766
0.4968958350356707
0.5941805296981646
0.312592876609792
0.20533025330727164
0.5062198820818319
0.7963514074089244
0.417240817094699
0.38483818470157843
0.5060407252236172
0.6505878581660646
0.6906029668340214
0.5264102854098409
0.33073230518885777
0.35264656187290766
0.7214909300809408
0.3172446273110835
0.27731714934365426
0.23906818145771946
0.5025979215775199
0.7001389261895217
0.40216218055032454
0.38300182758942025
0.6695455398162928
0.4298058178784612
0.6826554507127305
0.25174486186337475
0.24739139156308548
0.7891820141394482
0.4625268993360128
0.7903080616851618
0.3359143690865973
0.6679441768887097
0.3863653652587903
0.7966063429891947
0.811708706905331
0.6258444924476301
0.6678043570158699
0.8310686766803953
0.8036074994267036
0.6045251135410088
0.7266054838692987
0.42034535257124844
0.6538810719649161
0.33347159701034707
0.573953571590354
0.4145107511934983
0.7553573461391928
0.4585846468005659
0.4804457051714337
0.842264105998284
0.8414883365191954
0.5717620248508873
0.7365105204511349
0.5685108763900716
0.4627213623503797
0.41575877537026185
0.41290029622434066
0.34915404496000835
0.6518254531358489
0.5131677172982481
0.59547366102677
0.30721596857743766
0.3658640206732577
0.5869971122519955
0.38551536532686026
0.6955367276902867
0.7057984679457837
0.7620917963490601
0.5002655892638639
0.588860603713436
0.32257506543052694
0.28863390786723675
0.7047726508791663
0.38330483125714093
0.6267489491661231
0.8191136086480909
0.7431008545954584
0.882942241866482
0.5721562622265
0.8191791261778149
0.4324102741109971
0.6476852724527516
0.7437931711362099
0.8736578424190722
0.4203635813521488
0.48925308255245376
0.3295058117821472
0.48134506439226615
0.6034148674492518
0.5636564541051484
0.4710055028642567
0.2964923496087086
0.34506972737199754
0.5717361211465661
0.43316109965030064
0.34757596397351626
0.24404451033072147
0.22138798113553393
0.2253817395885085
0.5791189196393067
0.69646904149718
0.6857755820249457
0.7012361295616851
0.6117216023323253
0.38017161641771313
0.5651914793484684
0.6959184630317484
0.39873497586690193
0.6917039854787813
0.7125769197222668
0.6465690961517834
0.4245643472947042
0.7342603650233676
0.718163031322729
0.45838474049332845
0.6624033938624195
0.39231918674018973
0.558262757317833
0.6810062446751656
0.7791435866533235
0.62486261548188
0.6529509163377915
0.3477298367520131
0.3096842668911776
0.5246626672244327
0.5965218834329808
0.8530798018089801
0.6616279481979638
0.6735883054593182
0.5433429285465176
0.7232130439047114
0.5845499082454385
0.6372847314558527
0.4367537539248659
0.7163344827778843
0.6009589211301001
0.352743290992931
0.4667146398915629
0.6341174880825847
0.600560160009594
0.8507690145147139
0.40716960393273677
0.4799730253802229
0.7603577294471107
0.8516566030320718
0.4342591335637935
0.4915820389413041
0.3293884396125419
0.41064983872148897
0.5770577671591615
0.7714177367480787
0.5792217574475145
0.43182919719736135
0.6492426618491925
0.6979132520116241
0.7511165622861801
0.599938405544064
0.5897585226014537
0.6162980824035879
0.6319408018507124
0.8840350259230512
0.2898407152352539
0.35310410923344876
0.5721580798715562
0.36551440893259757
0.6898471854842653
0.49568226628424816
0.692858961681403
0.7538462604827474
0.5237583951367978
0.29350856773315104
0.5410926533445293
0.36579024509563013
0.37943565115663064
0.6789341865854778
0.4656182103032771
0.7475099289810356
0.7124475219739199
0.6622436420535998
0.5704067505762652
0.6400522460721388
0.8328476061621677
0.42624658990467096
0.6387682807961593
0.33330305270238714
0.306201590307226
0.712636485963436
0.8818402379070929
0.6272508812772808
0.6748186879732412
0.6632113548707551
0.6579705120586521
0.40265240696919985
0.38700475211559543
0.45529216812317774
0.6608701884887608
0.6940814486703036
0.6396617678402703
0.46920302513925666
0.46650581537768343
0.3283523889279264
0.5519084668921148
0.40584929952795623
0.7506547264261495
0.8406763760240146
0.8450140936616528
0.6363384272896845
0.7196400874856419
0.4171274481883927
0.2684534419087551
0.5044808945510526
0.33380147879130856
0.6343772265296123
0.6942182802635191
0.6505433963032146
0.3471458048365789
0.4436071226794786
0.3883804451085167
0.5224564476210481
0.624902772265213
0.9089107699501656
0.47794815064204765
0.8031116121695998
0.9292943673387232
0.4695596572637793
0.5110421051342199
0.44190853332770913
0.3894848500183425
0.42367116496502377
0.7125466924256714
0.6940850783025125
0.6421051532652259
0.48829690556265637
0.34738044576883337
0.2839177477272491
0.4561997907372015
0.47985790867565026
0.4289351812258144
0.6696070282623268
0.48218971038391417
0.6875002730496079
0.5403829658400163
0.3757048128935277
0.27844208405934384
0.326150671446202
0.7188992833388148
0.6072032869745358
0.3580769946413604
0.5363888347944679
0.683277530888032
0.7783312847048227
0.6164950150982447
0.9070746061710843
</DataArray>
<DataArray type="Float64" Name="Imag part" format="ascii">
0.0
0.0
0.0
0.0
0.0
0.0
0.0
0.0
0.0
0.0
0.0
0.0
0.0
0.0
0.0
0.0
0.0
0.0
0.0
0.0
0.0
0.0
0.0
0.0
0.0
0.0
0.0
0.0
0.0
0.0
0.0
0.0
0.0
0.0
0.0
0.0
0.0
0.0
0.0
0.0
0.0
0.0
0.0
0.0
0.0
0.0
0.0
0.0
0.0
0.0
0.0
0.0
0.0
0.0
0.0
0.0
0.0
0.0
0.0
0.0
0.0
0.0
0.0
0.0
0.0
0.0
0.0
0.0
0.0
0.0
0.0
0.0
0.0
0.0
0.0
0.0
0.0
0.0
0.0
0.0
0.0
0.0
0.0
0.0
0.0
0.0
0.0
0.0
0.0
0.0
0.0
0.0
0.0
0.0
0.0
0.0
0.0
0.0
0.0
0.0
0.0
0.0
0.0
0.0
0.0
0.0
0.0
0.0
0.0
0.0
0.0
0.0
0.0
0.0
0.0
0.0
0.0
0.0
0.0
0.0
0.0
0.0
0.0
0.0
0.0
0.0
0.0
0.0
0.0
0.0
0.0
0.0
0.0
0.0
0.0
0.0
0.0
0.0
0.0
0.0
0.0
0.0
0.0
0.0
0.0
0.0
0.0
0.0
0.0
0.0
0.0
0.0
0.0
0.0
0.0
0.0
0.0
0.0
0.0
0.0
0.0
0.0
0.0
0.0
0.0
0.0
0.0
0.0
0.0
0.0
0.0
0.0
0.0
0.0
0.0
0.0
0.0
0.0
0.0
0.0
0.0
0.0
0.0
0.0
0.0
0.0
0.0
0.0
0.0
0.0
0.0
0.0
0.0
0.0
0.0
0.0
0.0
0.0
0.0
0.0
0.0
0.0
0.0
0.0
0.0
0.0
0.0
0.0
0.0
0.0
0.0
0.0
0.0
0.0
0.0
0.0
0.0
0.0
0.0
0.0
0.0
0.0
0.0
0.0
0.0
0.0
0.0
0.0
0.0
0.0
0.0
0.0
0.0
0.0
0.0
0.0
0.0
0.0
0.0
0.0
0.0
0.0
0.0
0.0
0.0
0.0
0.0
0.0
0.0
0.0
0.0
0.0
0.0
0.0
0.0
0.0
0.0
0.0
0.0
0.0
0.0
0.0
0.0
0.0
0.0
0.0
0.0
0.0
0.0
0.0
0.0
0.0
0.0
0.0
0.0
0.0
0.0
0.0
0.0
0.0
0.0
0.0
0.0
0.0
0.0
0.0
0.0
0.0
0.0
0.0
0.0
0.0
0.0
0.0
0.0
0.0
0.0
0.0
0.0
0.0
0.0
0.0
0.0
0.0
0.0
0.0
0.0
0.0
0.0
0.0
0.0
0.0
0.0
0.0
0.0
0.0
0.0
0.0
0.0
0.0
0.0
0.0
0.0
0.0
0.0
0.0
0.0
0.0
0.0
0.0
0.0
0.0
0.0
0.0
0.0
0.0
0.0
0.0
0.0
0.0
0.0
0.0
0.0
0.0
0.0
0.0
0.0
0.0
0.0
0.0
0.0
0.0
0.0
0.0
0.0
0.0
0.0
0.0
0.0
0.0
0.0
0.0
0.0
0.0
0.0
0.0
0.0
0.0
0.0
0.0
0.0
0.0
0.0
0.0
0.0
0.0
0.0
0.0
0.0
0.0
0.0
0.0
0.0
0.0
0.0
0.0
0.0
0.0
0.0
0.0
0.0
0.0
0.0
0.0
0.0
0.0
0.0
0.0
0.0
0.0
0.0
0.0
0.0
0.0
0.0
0.0
0.0
0.0
0.0
0.0
0.0
0.0
0.0
0.0
0.0
0.0
0.0
0.0
0.0
0.0
0.0
0.0
0.0
0.0
0.0
0.0
0.0
0.0
0.0
0.0
0.0
0.0
0.0
0.0
0.0
0.0
0.0
0.0
0.0
0.0
0.0
0.0
0.0
0.0
0.0
0.0
0.0
0.0
0.0
0.0
0.0
0.0
0.0
0.0
0.0
0.0
0.0
0.0
0.0
0.0
0.0
0.0
0.0
0.0
0.0
0.0
0.0
0.0
0.0
0.0
0.0
0.0
0.0
0.0
0.0
0.0
0.0
0.0
0.0
0.0
0.0
0.0
0.0
0.0
0.0
0.0
0.0
0.0
0.0
0.0
0.0
0.0
0.0
0.0
0.0
0.0
0.0
0.0
0.0
0.0
0.0
0.0
0.0
0.0
0.0
0.0
0.0
0.0
0.0
0.0
0.0
0.0
0.0
0.0
0.0
0.0
0.0
0.0
0.0
0.0
0.0
0.0
0.0
0.0
0.0
0.0
0.0
0.0
0.0
0.0
0.0
0.0
0.0
0.0
0.0
0.0
0.0
0.0
0.0
0.0
0.0
0.0
0.0
0.0
0.0
0.0
0.0
0.0
0.0
0.0
0.0
0.0
0.0
0.0
0.0
0.0
0.0
0.0
0.0
0.0
0.0
</DataArray>
</PointData>
</Piece>
</UnstructuredGrid>
</VTKFile>
