<VTKFile type="UnstructuredGrid" version="1.0" byte_order="LittleEndian" header_type="UInt64">
<UnstructuredGrid>
<Piece NumberOfPoints="561" NumberOfCells="1026">
<Points>
<DataArray NumberOfComponents="3" type="Float64">
0.0 0.0 0.0
1.0 0.0 0.0
1.0 1.0 0.0
0.0 1.0 0.0
0.2 0.25 0.0
0.15 0.2 0.0
0.2 0.15 0.0
0.25 0.2 0.0
0.2 0.55 0.0
0.15 0.5 0.0
0.2 0.45 0.0
0.25 0.5 0.0
0.2 0.8500000000000001 0.0
0.15 0.8 0.0
0.2 0.75 0.0
0.25 0.8 0.0
0.5 0.25 0.0
0.45 0.2 0.0
0.5 0.15 0.0
0.55 0.2 0.0
0.5 0.55 0.0
0.45 0.5 0.0
0.5 0.45 0.0
0.55 0.5 0.0
0.5 0.8500000000000001 0.0
0.45 0.8 0.0
0.5 0.75 0.0
0.55 0.8 0.0
0.8 0.25 0.0
0.75 0.2 0.0
0.8 0.15 0.0
0.8500000000000001 0.2 0.0
0.8 0.55 0.0
0.75 0.5 0.0
0.8 0.45 0.0
0.8500000000000001 0.5 0.0
0.8 0.8500000000000001 0.0
0.75 0.8 0.0
0.8 0.75 0.0
0.8500000000000001 0.8 0.0
0.1646446608727939 0.2353553389914487 0.0
0.1646446610085513 0.1646446608727939 0.0
0.2353553391272061 0.1646446610085513 0.0
0.2353553389914487 0.2353553391272061 0.0
0.1646446608926911 0.5353553390113459 0.0
0.1646446610424293 0.464644660838916 0.0
0.2353553391217903 0.4646446610031355 0.0
0.2353553389872769 0.5353553391313779 0.0
0.1646446608926911 0.835355339011346 0.0
0.1646446610127232 0.7646446608686222 0.0
0.2353553391073089 0.7646446609886541 0.0
0.09999999999981467 0.0 0.0
0.1999999999995579 0.0 0.0
0.2999999999992664 0.0 0.0
0.3999999999989749 0.0 0.0
0.4999999999986943 0.0 0.0
0.5999999999989468 0.0 0.0
0.69999999999921 0.0 0.0
0.7999999999994734 0.0 0.0
0.8999999999997368 0.0 0.0
0.464644660838916 0.2353553389575707 0.0
0.4646446610031355 0.1646446608782098 0.0
0.5353553391313779 0.1646446610127232 0.0
0.5353553390113459 0.2353553391073089 0.0
0.4646446609191431 0.535355339037798 0.0
0.4646446610370135 0.4646446608443318 0.0
0.5353553391259621 0.4646446610073074 0.0
0.5353553390335396 0.5353553390851152 0.0
0.4646446609191431 0.835355339037798 0.0
0.4646446610073074 0.7646446608740379 0.0
1.0 0.09999999999981467 0.0
1.0 0.1999999999995579 0.0
1.0 0.2999999999992664 0.0
1.0 0.3999999999989749 0.0
1.0 0.4999999999986943 0.0
1.0 0.5999999999989468 0.0
1.0 0.69999999999921 0.0
1.0 0.7999999999994734 0.0
1.0 0.8999999999997368 0.0
0.5353553390335396 0.8353553390851153 0.0
0.7646446608686222 0.2353553389872769 0.0
0.7646446609886541 0.1646446608926911 0.0
0.8353553391313779 0.1646446610127232 0.0
0.835355339011346 0.2353553391073089 0.0
0.7646446609148848 0.5353553390335396 0.0
0.7646446609622021 0.4646446609191431 0.0
0.8353553391259622 0.4646446610073074 0.0
0.8353553390335396 0.5353553390851152 0.0
0.7646446609148848 0.8353553390335396 0.0
0.8999999999995836 1.0 0.0
0.7999999999999998 1.0 0.0
0.7000000000006934 1.0 0.0
0.6000000000013869 1.0 0.0
0.5000000000020587 1.0 0.0
0.4000000000016644 1.0 0.0
0.3000000000012483 1.0 0.0
0.2000000000008322 1.0 0.0
0.100000000000416 1.0 0.0
0.8353553390851153 0.7646446609664604 0.0
0.8353553390335396 0.8353553390851153 0.0
0.0 0.8999999999995836 0.0
0.0 0.7999999999999998 0.0
0.0 0.7000000000006934 0.0
0.0 0.6000000000013869 0.0
0.0 0.5000000000020587 0.0
0.0 0.4000000000016644 0.0
0.0 0.3000000000012483 0.0
0.0 0.2000000000008322 0.0
0.0 0.100000000000416 0.0
0.2353553389872769 0.8353553391313779 0.0
0.5353553390851152 0.7646446609664604 0.0
0.7646446609664604 0.7646446609148848 0.0
0.3433898395275172 0.3506711751366992 0.0
0.6555223459501304 0.3454869675941158 0.0
0.345221666793714 0.6526563204031345 0.0
0.6500000000000001 0.6500000000000001 0.0
0.3376521968691558 0.1382043895083632 0.0
0.1382043895133763 0.3376521967853719 0.0
0.662347803202637 0.1382043895520366 0.0
0.1382043895520382 0.6376521967973626 0.0
0.3623478031405708 0.861795610525198 0.0
0.8617956104989657 0.362347803199541 0.0
0.6376521968143625 0.8617956104085769 0.0
0.8617956104085793 0.6623478031856377 0.0
0.4577442078074788 0.351070261471894 0.0
0.35 0.4583333333333333 0.0
0.6459020038819421 0.4617868175191547 0.0
0.4583333333333332 0.65 0.0
0.5530890607669136 0.3613201225761349 0.0
0.3273703710454821 0.5577318018698613 0.0
0.6312499999999998 0.5541666666666667 0.0
0.5541666666666664 0.6687499999999998 0.0
0.2439339827500904 0.3534009741251356 0.0
0.3534009741333171 0.2439339827555447 0.0
0.645542633255165 0.2494789938936431 0.0
0.7540219891571036 0.3491277921959138 0.0
0.249952272779098 0.6530833888937803 0.0
0.3484148065846917 0.7545879643268294 0.0
0.6531222076166924 0.7497400369911574 0.0
0.7505210060732426 0.645542633241858 0.0
0.4039637890308081 0.5862884104434813 0.0
0.412084139813457 0.4119563048845528 0.0
0.5880044795246634 0.2926772259834077 0.0
0.7067067285638935 0.5871080864771689 0.0
0.4090296395354618 0.7151635620813825 0.0
0.710197217617496 0.4092669477118412 0.0
0.5705712315775688 0.6017363862836691 0.0
0.4129062502019396 0.2900031303949859 0.0
0.2875759077313267 0.4120913242586335 0.0
0.2857822245280523 0.286403119234693 0.0
0.7121827393464313 0.2851331787597786 0.0
0.7150652678408427 0.7134888166540321 0.0
0.2854198242405634 0.7144204535284502 0.0
0.596355661119427 0.4317463272007821 0.0
0.5195729035608143 0.3137550414159756 0.0
0.6814429780261859 0.5177727375312514 0.0
0.3826688547938011 0.5174013060277558 0.0
0.2742095802077177 0.5888719740076885 0.0
0.5881583496321303 0.7258694804636643 0.0
0.512916648925923 0.6130876559396792 0.0
0.4956876225771484 0.3916916101055488 0.0
0.6091203914685013 0.4955611555134115 0.0
0.3081086880202347 0.4951904105963052 0.0
0.4999999999999998 0.6913194444444444 0.0
0.05985636373714733 0.4420530910850028 0.0
0.9358864235191767 0.1421319380791616 0.0
0.2579469087763238 0.940143636305655 0.0
0.2572591731173738 0.07045208466228416 0.0
0.06411357656219142 0.1421319379513652 0.0
0.5579469089030646 0.05985636373221363 0.0
0.1421319380781085 0.06411357648234975 0.0
0.07045208466695235 0.2572591730084375 0.0
0.9295479153439864 0.4427408269776643 0.0
0.05985636373118473 0.7420530910991101 0.0
0.857868062047356 0.06411357656456783 0.0
0.9401436362836448 0.2579469088865591 0.0
0.4420530912261119 0.05985636371218914 0.0
0.1421319379601523 0.9358864234555444 0.0
0.07045208468232296 0.5572591730179106 0.0
0.06411357648701377 0.8578680619420427 0.0
0.7427408269774269 0.07045208468143335 0.0
0.9401436362796813 0.5579469088793961 0.0
0.7420530911272205 0.9401436362825517 0.0
0.9358864234788886 0.8578680620215167 0.0
0.557259173049598 0.9295479153066358 0.0
0.8578680619732905 0.9358864235092152 0.0
0.9295479153065642 0.7427408269514637 0.0
0.4427408269129883 0.9295479153609203 0.0
0.3143918185721838 0.19209726506541 0.0
0.1920972650952285 0.3143918185536934 0.0
0.685543141712359 0.1913525648670957 0.0
0.1935957104113677 0.6144796997410339 0.0
0.809504244004653 0.3856396610029235 0.0
0.3856396609623359 0.8095042440251847 0.0
0.6144796997484514 0.8064042895564912 0.0
0.8086474350951405 0.6855431417113358 0.0
0.1892629235394513 0.3860472153512443 0.0
0.3860472153840332 0.1892629235625572 0.0
0.6139842252634227 0.1894054608058127 0.0
0.1892545645570567 0.6860837355980296 0.0
0.8107370764580965 0.3139527846426451 0.0
0.3139162643942123 0.8107454354581183 0.0
0.6860472153811453 0.8107370764108126 0.0
0.8105945391657486 0.6139842252475645 0.0
0.4611414873717721 0.5920261295844056 0.0
0.64588989174686 0.4045281252147507 0.0
0.4077563014273697 0.4649729498043385 0.0
0.1352479275248563 0.4080729418485258 0.0
0.5919270581242425 0.1352479275322719 0.0
0.1352479275322713 0.7080729418757574 0.0
0.8647520724968161 0.2919270581077186 0.0
0.4080729420117861 0.1352479275090695 0.0
0.291927057990262 0.8647520725184488 0.0
0.708072941916764 0.8647520724650545 0.0
0.8647520724650537 0.5919270580832346 0.0
0.4023937232125269 0.3536208203306642 0.0
0.3541738588628671 0.4031000864928675 0.0
0.4048342686835711 0.6447434006119712 0.0
0.71316561210788 0.4653396854661837 0.0
0.2874850431956504 0.1351923300651653 0.0
0.1351923301412642 0.287485043121117 0.0
0.4125149568291094 0.8648076699653156 0.0
0.8648076698863019 0.4125149568736285 0.0
0.7125149568579259 0.1351923301736325 0.0
0.1351923301736628 0.5874850431419016 0.0
0.5874850431667454 0.8648076697977991 0.0
0.8648076697977938 0.7125149568332956 0.0
0.4669565156295485 0.2870570218847242 0.0
0.590687671546755 0.2407081407199352 0.0
0.7592918592591411 0.5906876715490426 0.0
0.628314831649785 0.604448761006592 0.0
0.2943959469377353 0.644686885458281 0.0
0.6435962868630796 0.7139205107269279 0.0
0.3541603945295475 0.6083266947287502 0.0
0.6381293107031111 0.2969749241621514 0.0
0.7033184070609535 0.6390130951465713 0.0
0.2365527442584948 0.4117538692896706 0.0
0.7538888166046027 0.2890016099317594 0.0
0.7108528717570168 0.7535478998948462 0.0
0.412428250006682 0.2451687953606375 0.0
0.3646049217394279 0.291369123885017 0.0
0.2997666023716281 0.3650313382879617 0.0
0.703282664384316 0.3560855151264761 0.0
0.358138582971924 0.7055356210530691 0.0
0.9402343666375695 0.6245829212181908 0.0
0.6754170787829508 0.9402343666380462 0.0
0.3245829211491601 0.940234366681378 0.0
0.3754170788557261 0.05976563334184509 0.0
0.6245829212382927 0.05976563334993901 0.0
0.05976563334976909 0.6754170787621089 0.0
0.9402343666753659 0.3245829212273756 0.0
0.05976563333581809 0.3754170787494793 0.0
0.6039102987483714 0.3686712308599859 0.0
0.6012930499303716 0.6517346089211749 0.0
0.2864297804870796 0.2405172437802475 0.0
0.4136086917315461 0.7616115504825639 0.0
0.2404795313617054 0.2864674927196282 0.0
0.758353287519132 0.4143267069527965 0.0
0.2830927819934522 0.761721308423855 0.0
0.2383775627313655 0.7168147508404688 0.0
0.7194341630926276 0.2412202997664903 0.0
0.7588080497214451 0.7196207455854151 0.0
0.5781661925444088 0.5462409467938331 0.0
0.5425156010469789 0.4175588442268487 0.0
0.2838157140155749 0.5421456515675847 0.0
0.5416674579335911 0.7178559517551015 0.0
0.4572520847679629 0.4146290290264605 0.0
0.4514650015977484 0.7124530617828471 0.0
0.2825175937747805 0.4632535898271452 0.0
0.419560766274629 0.545841732107458 0.0
0.5417004983287753 0.2884467063260733 0.0
0.7105882437563859 0.5409816789747722 0.0
[...]
<PointData Scalars="solution">
<DataArray type="Float64" Name="Real part" format="ascii">
0.20257973284835715
0.479121881472894
0.5596703374560551
0.3013483559678141
0.3213792714119065
0.2720610448805392
0.28753182865565907
0.34428748319754726
0.4366270351228224
0.37946596927770304
0.40014765018085025
0.4650617415098585
0.49229886783785876
0.46260178451373835
0.5038529659296752
0.5478642840901581
0.6532050817799545
0.5701833861587693
0.5901747875691726
0.6754423792573634
0.772370670660044
0.7010814877720881
0.7419793192945092
0.8087454811073965
0.789920000444708
0.7763422445818617
0.8376929113437903
0.87037464471848
0.918635767882549
0.8782429109918946
0.8359335966937409
0.8658550844011199
1.0335292240515332
1.0150917438427838
1.0060478110510633
0.9895067284402865
1.0245356599611481
1.0665057603800645
1.0874793819942907
1.033597034898488
0.290442410293279
0.2704613260791384
0.3167467273776148
0.34139592556946463
0.40084224950420144
0.37831193979773176
0.43802211116323114
0.4612552797187662
0.46838172510164855
0.47567391821711
0.5349273608421318
0.2087165174584642
0.23482222622781848
0.27532065624833285
0.33708271608109486
0.39784443205277875
0.4425993112823016
0.48459561262764556
0.5187801598010043
0.49974336234614736
0.6064057559459753
0.5659202453279825
0.6362824498380875
0.6828339326537728
0.7244437087779284
0.7009488163147658
0.7783917502345975
0.8009808407954322
0.7650179842327878
0.7928385893803754
0.5073653504119077
0.5517972554173185
0.5701179665717506
0.5909397308471537
0.6260203750201759
0.6263859239881184
0.6271892182672093
0.6362760312851279
0.5926306813709037
0.8300094415744907
0.9064873375923784
0.8433780942732608
0.8433821295315422
0.8999968464942326
1.0313065054066424
1.0008378664039892
0.983697951569775
1.0145447356012252
1.044520360901433
0.5890961302150074
0.6192028883565494
0.5936328101783124
0.5483368723710373
0.5154033432999959
0.45039316329309437
0.3946968192070807
0.35312065830029016
0.31634512007834276
1.0542556934681624
1.0217782860510565
0.3078877542161236
0.3157275865462058
0.30654317375472634
0.2885189740279358
0.27493582429960683
0.2530498085019832
0.22942173907979893
0.2151774240137563
0.20424076268981242
0.527003844890799
0.8636561698874005
1.085367673549893
0.3789298258053835
0.5907510078180161
0.4503647002784962
0.6536311820309387
0.329369433346082
0.268404880749568
0.5501902129630613
0.34003586348349796
0.48552742069236055
0.6692310975260339
0.6569087700534787
0.727265058188721
0.49490819395062474
0.4371186110083743
0.6623012972593852
0.5704783512361151
0.5599783535265287
0.4378890345474588
0.665775343662714
0.6342853476289007
0.32333901835829953
0.3737473346469336
0.5856598491053272
0.6779803744144063
0.40158795629661886
0.49096028435007055
0.7034870241020147
0.7414523658012638
0.5169006315698844
0.48641150674692696
0.5619210438399759
0.7258555504456343
0.5509715229021853
0.6894779838754528
0.641887964769862
0.4439306626967727
0.37393462839139874
0.33222718480041263
0.6578009668543533
0.7620692981716306
0.4454460644525319
0.6309442235643442
0.5449938577001399
0.7268004335340086
0.499193083180503
0.412821641934339
0.6861295626862445
0.6263069246531837
0.5672246881949856
0.6747918408965068
0.4261383978303358
0.6442458782595432
0.26990108190028494
0.555403913774995
0.3874715172204558
0.2628956852108386
0.21145000327180388
0.4413445105793358
0.21977692577977187
0.22964769774934068
0.6536896549205793
0.32329726386709046
0.540939283552199
0.5905840668088507
0.37742624327665186
0.3410006246450406
0.29683417111398525
0.32523604384147714
0.5435951806737818
0.6591106779443696
0.6430442453179038
0.6504483021971894
0.5730496828037647
0.6440332850321326
0.6855473966162279
0.5128500585736363
0.3357406775416475
0.29198623708730975
0.6294494264794315
0.3745759446498347
0.7350909464792538
0.5482148673653083
0.7024322638316512
0.7993629524470923
0.3154951664610881
0.40453577657499185
0.5671237227551881
0.39245191837213295
0.7070288845562288
0.4784326801132429
0.7574298033811998
0.782510164499449
0.6021079077635936
0.6180624674484798
0.5307220422783531
0.2973445768323123
0.5251923840353082
0.36844010418429113
0.6849964929821842
0.40422536073170995
0.45007644480923054
0.741262538520998
0.759788366476169
0.4361304269219744
0.41112168787231207
0.5083252729919567
0.7850679413015287
0.3003005609191656
0.2598673473348008
0.5526602306207485
0.725455263785632
0.6112846217715993
0.338741348457728
0.6605261117839635
0.7777186098669214
0.524631397803622
0.5861487469320633
0.8071119632086623
0.646477847004432
0.4173366271967152
0.6757311299029333
0.45455248127476267
0.5747970987012153
0.6956055624626928
0.35924979734877616
0.7168063200130218
0.8108247690522349
0.4579479881703235
0.38710190539158057
0.3541408987306121
0.6339730997561905
0.4790405662130372
0.6438590580811043
0.6004188814454754
0.41481737343723263
0.32625356886137574
0.46500433510812544
0.3083867505611283
0.5895340855373258
0.2501898982363381
0.5760759256360416
0.6342322189650952
0.33277905043420314
0.6014869665870295
0.3148886432940775
0.7745628645796937
0.4761833617020848
0.442511504277652
0.7061583164012495
0.850831680996682
0.6914795554630241
0.6279977466377276
0.4276252612502187
0.7009981867688926
0.55990192804305
0.6223004650318394
0.40924264003483396
0.567539749247887
0.5705766841349191
0.7854473654045997
0.4933902954417231
0.6870686036479002
0.40358568279652934
0.7361192137769509
0.6675456792001293
0.6682146756017028
0.43981910749218067
0.5508008986560967
0.699764513098394
0.5659260979011699
0.6797037504178033
0.6159834534376
0.6108657975723412
0.5407121588330852
0.6754130012499299
0.44636452373116475
0.6251881078816927
0.427216845862571
0.34955340905036875
0.6603274714514553
0.24402013977628553
0.6269297000495733
0.2980484537068394
0.3090011382744495
0.5131176116588682
0.46526842339829816
0.5974804324019929
0.6738098899010987
0.6267779599790171
0.49447391285424597
0.5472839597213259
0.5439842326751622
0.46340477531514107
0.6453602658545092
0.46210359822831487
0.402295792924769
0.49657153364085155
0.5965628958351592
0.31157628589648506
0.20377808013765905
0.5072255770430639
0.7973898427837158
0.41644594185619876
0.3838946476847192
0.5053694447681754
0.6511723625233382
0.6915747881187572
0.5261237874110065
0.32958877003007087
0.3515969581784147
0.7228935386280028
0.31587554209222674
0.2759757951655776
0.23754633996005037
0.5022368399658356
0.7013497002441473
0.40126942196043464
0.3818999320399651
0.6704165778364769
0.42910722082824143
0.6837395848141351
0.25024939860490464
0.2459225538242678
0.7908820414282096
0.4618595575152335
0.792190007205686
0.334617930166425
0.6685619368409831
0.38532562763381617
0.7985798896927304
0.8140622051051414
0.6261467494752686
0.6685733731772737
0.8333548988618433
0.8058405375650761
0.6050106203708373
0.728149262921855
0.41958031497417075
0.65469153930706
0.3321464133879718
0.5739254756837351
0.41347680500182216
0.7565183739431602
0.4577110870481042
0.47989005222368436
0.8441138177936975
0.8431759971293424
0.5719935999052606
0.7379882144088316
0.5679918682304741
0.46218888816756476
0.41495853531768156
0.4120186615769379
0.3480313482746347
0.6526052950644986
0.5127653832216253
0.5955852896064907
0.3059319383899913
0.3648276488487431
0.5872910159875261
0.3845441050568332
0.6966694390329254
0.7071268947720737
0.7638946355501691
0.4999069374455166
0.5890920544278423
0.32136997986179644
0.2872505741095952
0.7052609994544518
0.38218574361567065
0.6266869006664475
0.8205002572956084
0.7441640779853931
0.8849819227435968
0.5716376889247001
0.820276689552561
0.4317639071740243
0.6478280496278878
0.7445489540031873
0.8753273674206046
0.4194979625266987
0.4888568642553905
0.3283035442472943
0.4806693780897335
0.6035198439141755
0.5633310372379065
0.47028509866789037
0.29513089163182027
0.34396649282123887
0.5724533943418362
0.4326341637843347
0.346584311724872
0.24263070382806512
0.21986424773174956
0.22384851926751784
0.5801116268661762
0.6985634783003319
0.6881159679435579
0.7035947012958699
0.6129084255460275
0.37939198921127554
0.5657349513186408
0.69775225175012
0.3978449339650298
0.6928441958678726
0.7134857850771088
0.6476232046614422
0.4236605661661151
0.7350898924890532
0.7187445681181871
0.4577161927350721
0.6633968954409967
0.3912400800709235
0.5584378812804709
0.6819133783493817
0.7809101663992196
0.6252925760792952
0.652923475181089
0.3466396857447247
0.30842616745839524
0.5242689115731554
0.5965757674424084
0.8547904955807606
0.6619115482200062
0.674323070576788
0.5430886354788186
0.7243340629726601
0.5843301686273213
0.6371844983476518
0.43585251046722506
0.7167611689037032
0.6014086431683248
0.35149117264165625
0.46584620931918314
0.6349341353530177
0.6005400277004423
0.8521643045252248
0.4062608765031081
0.47948797712887004
0.7613809255787889
0.8532683585184514
0.4333140848416277
0.4910200722810665
0.3281581333267773
0.40971824933817197
0.577256069976276
0.773113182340082
0.5791897604905911
0.43103099503429115
0.6497525808145437
0.6989323833905215
0.7525765164238226
0.6001220597556937
0.5902468344673969
0.6157970841936253
0.6325457100582964
0.8851333777258213
0.28848942800028526
0.35204076184757843
0.5724136149908313
0.36444558119434817
0.6911048529844361
0.4953666534193347
0.6942136271236234
0.7557815924490351
0.5234307408129701
0.2921424448227008
0.541196773854489
0.364703345002615
0.3784489679301075
0.6801906024894061
0.4652001927199099
0.7494528660790482
0.7139693456599358
0.662203621461531
0.5699000035994589
0.6399393431000311
0.8340950666288875
0.4254651374969882
0.6397421283026975
0.3321210100442906
0.3048841968411385
0.7131550911784473
0.8837453628092873
0.6279510607021023
0.675385192895795
0.6639072902948098
0.6586922716665153
0.4018134646383221
0.3860909258383826
0.45462378037102663
0.6618904732193027
0.6942829236901032
0.6392687449149561
0.4684023458255451
0.4659005784331749
0.32698983890950234
0.5517358355210861
0.40476426208481237
0.7518687202845358
0.842576678531205
0.8468269852278549
0.6360799615015688
0.7205585744311308
0.41637148556273623
0.2670316970527648
0.5045667238237779
0.3326404322485622
0.6357406435791981
0.6962639356771236
0.6520482956876164
0.3461302206673354
0.4432452923757782
0.38721003349601824
0.5216854944914808
0.6249084639266026
0.9104770202010535
0.4775390736966055
0.8040015843438351
0.9309643918323872
0.468968607420782
0.510428854583821
0.4411665013250709
0.38861497985691823
0.4231445482573822
0.7145294273542572
0.6958175255732486
0.6434027782406582
0.4881753574438283
0.3462405763849056
0.28251205851216415
0.45559002755163147
0.479366564633711
0.4281306732691072
0.6708445436580427
0.4815778446327157
0.6886413926857927
0.5402457458949498
0.3747616414303928
0.2770554581033511
0.32500408394347746
0.7202581954219573
0.6075691064507167
0.35695613555285033
0.5362156140907847
0.6844835076843192
0.7803559124629984
0.6163177601845199
0.9083396989724049
</DataArray>
<DataArray type="Float64" Name="Imag part" format="ascii">
0.0
0.0
0.0
0.0
0.0
0.0
0.0
0.0
0.0
0.0
0.0
0.0
0.0
0.0
0.0
0.0
0.0
0.0
0.0
0.0
0.0
0.0
0.0
0.0
0.0
0.0
0.0
0.0
0.0
0.0
0.0
0.0
0.0
0.0
0.0
0.0
0.0
0.0
0.0
0.0
0.0
0.0
0.0
0.0
0.0
0.0
0.0
0.0
0.0
0.0
0.0
0.0
0.0
0.0
0.0
0.0
0.0
0.0
0.0
0.0
0.0
0.0
0.0
0.0
0.0
0.0
0.0
0.0
0.0
0.0
0.0
0.0
0.0
0.0
0.0
0.0
0.0
0.0
0.0
0.0
0.0
0.0
0.0
0.0
0.0
0.0
0.0
0.0
0.0
0.0
0.0
0.0
0.0
0.0
0.0
0.0
0.0
0.0
0.0
0.0
0.0
0.0
0.0
0.0
0.0
0.0
0.0
0.0
0.0
0.0
0.0
0.0
0.0
0.0
0.0
0.0
0.0
0.0
0.0
0.0
0.0
0.0
0.0
0.0
0.0
0.0
0.0
0.0
0.0
0.0
0.0
0.0
0.0
0.0
0.0
0.0
0.0
0.0
0.0
0.0
0.0
0.0
0.0
0.0
0.0
0.0
0.0
0.0
0.0
0.0
0.0
0.0
0.0
0.0
0.0
0.0
0.0
0.0
0.0
0.0
0.0
0.0
0.0
0.0
0.0
0.0
0.0
0.0
0.0
0.0
0.0
0.0
0.0
0.0
0.0
0.0
0.0
0.0
0.0
0.0
0.0
0.0
0.0
0.0
0.0
0.0
0.0
0.0
0.0
0.0
0.0
0.0
0.0
0.0
0.0
0.0
0.0
0.0
0.0
0.0
0.0
0.0
0.0
0.0
0.0
0.0
0.0
0.0
0.0
0.0
0.0
0.0
0.0
0.0
0.0
0.0
0.0
0.0
0.0
0.0
0.0
0.0
0.0
0.0
0.0
0.0
0.0
0.0
0.0
0.0
0.0
0.0
0.0
0.0
0.0
0.0
0.0
0.0
0.0
0.0
0.0
0.0
0.0
0.0
0.0
0.0
0.0
0.0
0.0
0.0
0.0
0.0
0.0
0.0
0.0
0.0
0.0
0.0
0.0
0.0
0.0
0.0
0.0
0.0
0.0
0.0
0.0
0.0
0.0
0.0
0.0
0.0
0.0
0.0
0.0
0.0
0.0
0.0
0.0
0.0
0.0
0.0
0.0
0.0
0.0
0.0
0.0
0.0
0.0
0.0
0.0
0.0
0.0
0.0
0.0
0.0
0.0
0.0
0.0
0.0
0.0
0.0
0.0
0.0
0.0
0.0
0.0
0.0
0.0
0.0
0.0
0.0
0.0
0.0
0.0
0.0
0.0
0.0
0.0
0.0
0.0
0.0
0.0
0.0
0.0
0.0
0.0
0.0
0.0
0.0
0.0
0.0
0.0
0.0
0.0
0.0
0.0
0.0
0.0
0.0
0.0
0.0
0.0
0.0
0.0
0.0
0.0
0.0
0.0
0.0
0.0
0.0
0.0
0.0
0.0
0.0
0.0
0.0
0.0
0.0
0.0
0.0
0.0
0.0
0.0
0.0
0.0
0.0
0.0
0.0
0.0
0.0
0.0
0.0
0.0
0.0
0.0
0.0
0.0
0.0
0.0
0.0
0.0
0.0
0.0
0.0
0.0
0.0
0.0
0.0
0.0
0.0
0.0
0.0
0.0
0.0
0.0
0.0
0.0
0.0
0.0
0.0
0.0
0.0
0.0
0.0
0.0
0.0
0.0
0.0
0.0
0.0
0.0
0.0
0.0
0.0
0.0
0.0
0.0
0.0
0.0
0.0
0.0
0.0
0.0
0.0
0.0
0.0
0.0
0.0
0.0
0.0
0.0
0.0
0.0
0.0
0.0
0.0
0.0
0.0
0.0
0.0
0.0
0.0
0.0
0.0
0.0
0.0
0.0
0.0
0.0
0.0
0.0
0.0
0.0
0.0
0.0
0.0
0.0
0.0
0.0
0.0
0.0
0.0
0.0
0.0
0.0
0.0
0.0
0.0
0.0
0.0
0.0
0.0
0.0
0.0
0.0
0.0
0.0
0.0
0.0
0.0
0.0
0.0
0.0
0.0
0.0
0.0
0.0
0.0
0.0
0.0
0.0
0.0
0.0
0.0
0.0
0.0
0.0
0.0
0.0
0.0
0.0
0.0
0.0
0.0
0.0
0.0
0.0
0.0
0.0
0.0
0.0
0.0
0.0
0.0
0.0
0.0
0.0
0.0
0.0
0.0
0.0
0.0
0.0
0.0
0.0
0.0
0.0
0.0
0.0
0.0
0.0
0.0
0.0
0.0
0.0
0.0
0.0
0.0
0.0
0.0
0.0
0.0
0.0
0.0
0.0
0.0
0.0
0.0
0.0
0.0
0.0
0.0
0.0
0.0
0.0
0.0
0.0
0.0
0.0
</DataArray>
</PointData>
</Piece>
</UnstructuredGrid>
</VTKFile>
