<VTKFile type="UnstructuredGrid" version="1.0" byte_order="LittleEndian" header_type="UInt64">
<UnstructuredGrid>
<Piece NumberOfPoints="561" NumberOfCells="1026">
<Points>
<DataArray NumberOfComponents="3" type="Float64">
0.0 0.0 0.0
1.0 0.0 0.0
1.0 1.0 0.0
0.0 1.0 0.0
0.2 0.25 0.0
0.15 0.2 0.0
0.2 0.15 0.0
0.25 0.2 0.0
0.2 0.55 0.0
0.15 0.5 0.0
0.2 0.45 0.0
0.25 0.5 0.0
0.2 0.8500000000000001 0.0
0.15 0.8 0.0
0.2 0.75 0.0
0.25 0.8 0.0
0.5 0.25 0.0
0.45 0.2 0.0
0.5 0.15 0.0
0.55 0.2 0.0
0.5 0.55 0.0
0.45 0.5 0.0
0.5 0.45 0.0
0.55 0.5 0.0
0.5 0.8500000000000001 0.0
0.45 0.8 0.0
0.5 0.75 0.0
0.55 0.8 0.0
0.8 0.25 0.0
0.75 0.2 0.0
0.8 0.15 0.0
0.8500000000000001 0.2 0.0
0.8 0.55 0.0
0.75 0.5 0.0
0.8 0.45 0.0
0.8500000000000001 0.5 0.0
0.8 0.8500000000000001 0.0
0.75 0.8 0.0
0.8 0.75 0.0
0.8500000000000001 0.8 0.0
0.1646446608727939 0.2353553389914487 0.0
0.1646446610085513 0.1646446608727939 0.0
0.2353553391272061 0.1646446610085513 0.0
0.2353553389914487 0.2353553391272061 0.0
0.1646446608926911 0.5353553390113459 0.0
0.1646446610424293 0.464644660838916 0.0
0.2353553391217903 0.4646446610031355 0.0
0.2353553389872769 0.5353553391313779 0.0
0.1646446608926911 0.835355339011346 0.0
0.1646446610127232 0.7646446608686222 0.0
0.2353553391073089 0.7646446609886541 0.0
0.09999999999981467 0.0 0.0
0.1999999999995579 0.0 0.0
0.2999999999992664 0.0 0.0
0.3999999999989749 0.0 0.0
0.4999999999986943 0.0 0.0
0.5999999999989468 0.0 0.0
0.69999999999921 0.0 0.0
0.7999999999994734 0.0 0.0
0.8999999999997368 0.0 0.0
0.464644660838916 0.2353553389575707 0.0
0.4646446610031355 0.1646446608782098 0.0
0.5353553391313779 0.1646446610127232 0.0
0.5353553390113459 0.2353553391073089 0.0
0.4646446609191431 0.535355339037798 0.0
0.4646446610370135 0.4646446608443318 0.0
0.5353553391259621 0.4646446610073074 0.0
0.5353553390335396 0.5353553390851152 0.0
0.4646446609191431 0.835355339037798 0.0
0.4646446610073074 0.7646446608740379 0.0
1.0 0.09999999999981467 0.0
1.0 0.1999999999995579 0.0
1.0 0.2999999999992664 0.0
1.0 0.3999999999989749 0.0
1.0 0.4999999999986943 0.0
1.0 0.5999999999989468 0.0
1.0 0.69999999999921 0.0
1.0 0.7999999999994734 0.0
1.0 0.8999999999997368 0.0
0.5353553390335396 0.8353553390851153 0.0
0.7646446608686222 0.2353553389872769 0.0
0.7646446609886541 0.1646446608926911 0.0
0.8353553391313779 0.1646446610127232 0.0
0.835355339011346 0.2353553391073089 0.0
0.7646446609148848 0.5353553390335396 0.0
0.7646446609622021 0.4646446609191431 0.0
0.8353553391259622 0.4646446610073074 0.0
0.8353553390335396 0.5353553390851152 0.0
0.7646446609148848 0.8353553390335396 0.0
0.8999999999995836 1.0 0.0
0.7999999999999998 1.0 0.0
0.7000000000006934 1.0 0.0
0.6000000000013869 1.0 0.0
0.5000000000020587 1.0 0.0
0.4000000000016644 1.0 0.0
0.3000000000012483 1.0 0.0
0.2000000000008322 1.0 0.0
0.100000000000416 1.0 0.0
0.8353553390851153 0.7646446609664604 0.0
0.8353553390335396 0.8353553390851153 0.0
0.0 0.8999999999995836 0.0
0.0 0.7999999999999998 0.0
0.0 0.7000000000006934 0.0
0.0 0.6000000000013869 0.0
0.0 0.5000000000020587 0.0
0.0 0.4000000000016644 0.0
0.0 0.3000000000012483 0.0
0.0 0.2000000000008322 0.0
0.0 0.100000000000416 0.0
0.2353553389872769 0.8353553391313779 0.0
0.5353553390851152 0.7646446609664604 0.0
0.7646446609664604 0.7646446609148848 0.0
0.3433898395275172 0.3506711751366992 0.0
0.6555223459501304 0.3454869675941158 0.0
0.345221666793714 0.6526563204031345 0.0
0.6500000000000001 0.6500000000000001 0.0
0.3376521968691558 0.1382043895083632 0.0
0.1382043895133763 0.3376521967853719 0.0
0.662347803202637 0.1382043895520366 0.0
0.1382043895520382 0.6376521967973626 0.0
0.3623478031405708 0.861795610525198 0.0
0.8617956104989657 0.362347803199541 0.0
0.6376521968143625 0.8617956104085769 0.0
0.8617956104085793 0.6623478031856377 0.0
0.4577442078074788 0.351070261471894 0.0
0.35 0.4583333333333333 0.0
0.6459020038819421 0.4617868175191547 0.0
0.4583333333333332 0.65 0.0
0.5530890607669136 0.3613201225761349 0.0
0.3273703710454821 0.5577318018698613 0.0
0.6312499999999998 0.5541666666666667 0.0
0.5541666666666664 0.6687499999999998 0.0
0.2439339827500904 0.3534009741251356 0.0
0.3534009741333171 0.2439339827555447 0.0
0.645542633255165 0.2494789938936431 0.0
0.7540219891571036 0.3491277921959138 0.0
0.249952272779098 0.6530833888937803 0.0
0.3484148065846917 0.7545879643268294 0.0
0.6531222076166924 0.7497400369911574 0.0
0.7505210060732426 0.645542633241858 0.0
0.4039637890308081 0.5862884104434813 0.0
0.412084139813457 0.4119563048845528 0.0
0.5880044795246634 0.2926772259834077 0.0
0.7067067285638935 0.5871080864771689 0.0
0.4090296395354618 0.7151635620813825 0.0
0.710197217617496 0.4092669477118412 0.0
0.5705712315775688 0.6017363862836691 0.0
0.4129062502019396 0.2900031303949859 0.0
0.2875759077313267 0.4120913242586335 0.0
0.2857822245280523 0.286403119234693 0.0
0.7121827393464313 0.2851331787597786 0.0
0.7150652678408427 0.7134888166540321 0.0
0.2854198242405634 0.7144204535284502 0.0
0.596355661119427 0.4317463272007821 0.0
0.5195729035608143 0.3137550414159756 0.0
0.6814429780261859 0.5177727375312514 0.0
0.3826688547938011 0.5174013060277558 0.0
0.2742095802077177 0.5888719740076885 0.0
0.5881583496321303 0.7258694804636643 0.0
0.512916648925923 0.6130876559396792 0.0
0.4956876225771484 0.3916916101055488 0.0
0.6091203914685013 0.4955611555134115 0.0
0.3081086880202347 0.4951904105963052 0.0
0.4999999999999998 0.6913194444444444 0.0
0.05985636373714733 0.4420530910850028 0.0
0.9358864235191767 0.1421319380791616 0.0
0.2579469087763238 0.940143636305655 0.0
0.2572591731173738 0.07045208466228416 0.0
0.06411357656219142 0.1421319379513652 0.0
0.5579469089030646 0.05985636373221363 0.0
0.1421319380781085 0.06411357648234975 0.0
0.07045208466695235 0.2572591730084375 0.0
0.9295479153439864 0.4427408269776643 0.0
0.05985636373118473 0.7420530910991101 0.0
0.857868062047356 0.06411357656456783 0.0
0.9401436362836448 0.2579469088865591 0.0
0.4420530912261119 0.05985636371218914 0.0
0.1421319379601523 0.9358864234555444 0.0
0.07045208468232296 0.5572591730179106 0.0
0.06411357648701377 0.8578680619420427 0.0
0.7427408269774269 0.07045208468143335 0.0
0.9401436362796813 0.5579469088793961 0.0
0.7420530911272205 0.9401436362825517 0.0
0.9358864234788886 0.8578680620215167 0.0
0.557259173049598 0.9295479153066358 0.0
0.8578680619732905 0.9358864235092152 0.0
0.9295479153065642 0.7427408269514637 0.0
0.4427408269129883 0.9295479153609203 0.0
0.3143918185721838 0.19209726506541 0.0
0.1920972650952285 0.3143918185536934 0.0
0.685543141712359 0.1913525648670957 0.0
0.1935957104113677 0.6144796997410339 0.0
0.809504244004653 0.3856396610029235 0.0
0.3856396609623359 0.8095042440251847 0.0
0.6144796997484514 0.8064042895564912 0.0
0.8086474350951405 0.6855431417113358 0.0
0.1892629235394513 0.3860472153512443 0.0
0.3860472153840332 0.1892629235625572 0.0
0.6139842252634227 0.1894054608058127 0.0
0.1892545645570567 0.6860837355980296 0.0
0.8107370764580965 0.3139527846426451 0.0
0.3139162643942123 0.8107454354581183 0.0
0.6860472153811453 0.8107370764108126 0.0
0.8105945391657486 0.6139842252475645 0.0
0.4611414873717721 0.5920261295844056 0.0
0.64588989174686 0.4045281252147507 0.0
0.4077563014273697 0.4649729498043385 0.0
0.1352479275248563 0.4080729418485258 0.0
0.5919270581242425 0.1352479275322719 0.0
0.1352479275322713 0.7080729418757574 0.0
0.8647520724968161 0.2919270581077186 0.0
0.4080729420117861 0.1352479275090695 0.0
0.291927057990262 0.8647520725184488 0.0
0.708072941916764 0.8647520724650545 0.0
0.8647520724650537 0.5919270580832346 0.0
0.4023937232125269 0.3536208203306642 0.0
0.3541738588628671 0.4031000864928675 0.0
0.4048342686835711 0.6447434006119712 0.0
0.71316561210788 0.4653396854661837 0.0
0.2874850431956504 0.1351923300651653 0.0
0.1351923301412642 0.287485043121117 0.0
0.4125149568291094 0.8648076699653156 0.0
0.8648076698863019 0.4125149568736285 0.0
0.7125149568579259 0.1351923301736325 0.0
0.1351923301736628 0.5874850431419016 0.0
0.5874850431667454 0.8648076697977991 0.0
0.8648076697977938 0.7125149568332956 0.0
0.4669565156295485 0.2870570218847242 0.0
0.590687671546755 0.2407081407199352 0.0
0.7592918592591411 0.5906876715490426 0.0
0.628314831649785 0.604448761006592 0.0
0.2943959469377353 0.644686885458281 0.0
0.6435962868630796 0.7139205107269279 0.0
0.3541603945295475 0.6083266947287502 0.0
0.6381293107031111 0.2969749241621514 0.0
0.7033184070609535 0.6390130951465713 0.0
0.2365527442584948 0.4117538692896706 0.0
0.7538888166046027 0.2890016099317594 0.0
0.7108528717570168 0.7535478998948462 0.0
0.412428250006682 0.2451687953606375 0.0
0.3646049217394279 0.291369123885017 0.0
0.2997666023716281 0.3650313382879617 0.0
0.703282664384316 0.3560855151264761 0.0
0.358138582971924 0.7055356210530691 0.0
0.9402343666375695 0.6245829212181908 0.0
0.6754170787829508 0.9402343666380462 0.0
0.3245829211491601 0.940234366681378 0.0
0.3754170788557261 0.05976563334184509 0.0
0.6245829212382927 0.05976563334993901 0.0
0.05976563334976909 0.6754170787621089 0.0
0.9402343666753659 0.3245829212273756 0.0
0.05976563333581809 0.3754170787494793 0.0
0.6039102987483714 0.3686712308599859 0.0
0.6012930499303716 0.6517346089211749 0.0
0.2864297804870796 0.2405172437802475 0.0
0.4136086917315461 0.7616115504825639 0.0
0.2404795313617054 0.2864674927196282 0.0
0.758353287519132 0.4143267069527965 0.0
0.2830927819934522 0.761721308423855 0.0
0.2383775627313655 0.7168147508404688 0.0
0.7194341630926276 0.2412202997664903 0.0
0.7588080497214451 0.7196207455854151 0.0
0.5781661925444088 0.5462409467938331 0.0
0.5425156010469789 0.4175588442268487 0.0
0.2838157140155749 0.5421456515675847 0.0
0.5416674579335911 0.7178559517551015 0.0
0.4572520847679629 0.4146290290264605 0.0
0.4514650015977484 0.7124530617828471 0.0
0.2825175937747805 0.4632535898271452 0.0
0.419560766274629 0.545841732107458 0.0
0.5417004983287753 0.2884467063260733 0.0
0.7105882437563859 0.5409816789747722 0.0
[...]
<PointData Scalars="solution">
<DataArray type="Float64" Name="Real part" format="ascii">
0.20259288450424642
0.4791393604593626
0.5596877051921263
0.3013639147768079
0.321394330027041
0.27207506423574257
0.287546165198274
0.34430293831016784
0.4366435091281875
0.3794814678942753
0.4001634320239274
0.46507865112383373
0.49231552676885415
0.46261799681819005
0.5038697774290747
0.5478816712927883
0.6532232173731762
0.5702004217424524
0.5901921294335167
0.6754607049671424
0.7723897302241532
0.7010998128849504
0.7419980105636512
0.8087648225560297
0.7899385716802774
0.7763607303813234
0.8377119828011802
0.870393765444299
0.918654876744894
0.8782618237477788
0.835952046386556
0.8658736563456456
1.033548687380273
1.0151114409903637
1.0060672472465275
0.9895258829559203
1.024554279310809
1.0665250202499739
1.0874986808260694
1.0336156533704104
0.29045686207668403
0.2704752886947996
0.3167616800111026
0.3414114088380246
0.40085816801983964
0.37832735466191986
0.4380385647121346
0.46127218399497755
0.4683980375319769
0.4756903034412581
0.5349446081472382
0.20872990265601962
0.23483624963565974
0.27533559819701386
0.33709869339897175
0.39786130154751936
0.4426168050485963
0.484613432888318
0.5187980488424835
0.49976102584951954
0.6064232895194471
0.5659372259786641
0.6363003301422108
0.6828523807859322
0.7244623578699265
0.7009671865779928
0.7784108661397384
0.8010001694267814
0.7650364296798162
0.7928573596703933
0.5073830468999238
0.5518153076182974
0.5701362836115882
0.5909581917464513
0.6260389288742979
0.6264043888150541
0.6272074704064151
0.6362940264968228
0.5926482898018288
0.8300282994338836
0.906506455491355
0.8433967474515747
0.8434005456358287
0.9000157096759046
1.0313261504655291
1.000857495971304
0.9837172113886465
1.0145639828577435
1.0445392981161956
0.5891137475996368
0.619220900286167
0.5936510502174801
0.5483550902489807
0.5154213953259359
0.4504107391539641
0.3947137958021687
0.353136993301032
0.31636091375674374
1.0542746592882277
1.0217967716161502
0.307903399420979
0.3157432988847968
0.30655881393822176
0.2885343387511775
0.274950822120674
0.2530643479156469
0.22943575510057404
0.2151909971919899
0.20425403778248122
0.5270209554729525
0.8636754111669516
1.0853870869078848
0.3789465934364301
0.5907700028393379
0.45038245739677335
0.6536504837694697
0.32938516488283387
0.2684196428680387
0.5502084610553549
0.3400519142993927
0.4855451501245638
0.6692500027424352
0.6569275340754166
0.7272839557629227
0.494926149035348
0.43713598215474964
0.6623206580106752
0.5704970486652322
0.559997034212295
0.43790653040808214
0.6657947470052359
0.634304508538647
0.323354809391835
0.37376374767808407
0.5856785686210582
0.6779995722832799
0.4016049522995573
0.49097816238519687
0.7035062518989806
0.7414717240648447
0.5169188424384397
0.48642927855593554
0.5619396915139221
0.7258750246830923
0.5509898882847777
0.6894973355917885
0.6419072141792476
0.4439479203709148
0.37395116702668835
0.3322431208255339
0.6578199996394664
0.762088646100485
0.445463463535527
0.6309633665687439
0.5450122138987484
0.7268199644228277
0.4992109746420856
0.4128387653329015
0.6861487865096647
0.6263259649539691
0.567243138968648
0.6748112079773974
0.42615558047862384
0.6442648732640096
0.26991591915782
0.5554218755222766
0.38748830285948516
0.262910327511094
0.2114634786401898
0.44136187873764515
0.21979059598056172
0.2296616558159145
0.6537083576673409
0.3233130602207567
0.5409571797766266
0.5906024038169119
0.3774427060242285
0.34101668601890217
0.29684954881555675
0.3252518394570131
0.5436132455688045
0.6591293237037665
0.6430625492302782
0.6504662122722312
0.5730680265433525
0.6440512078007047
0.6855657557892201
0.5128680135583704
0.335756479796831
0.29200136810795774
0.6294680703174107
0.3745924075713151
0.7351101516676649
0.5482329417859243
0.7024513140807271
0.7993821403847947
0.3155105942944669
0.40455225709511444
0.5671421051695391
0.3924684931716609
0.7070479469683261
0.47845027608300467
0.7574488953853992
0.78252942167929
0.6021266233711736
0.6180816348736307
0.5307399904850361
0.29735965130318487
0.5252103486129396
0.3684562868801464
0.685015283980069
0.404241787979277
0.45009372951936566
0.7412813286981815
0.759807374492171
0.4361478321120391
0.4111388258851651
0.508343534988675
0.7850874992759499
0.30031578672791553
0.2598818397135165
0.5526782892259121
0.7254742738146248
0.6113030202552997
0.3387572367991652
0.6605448461489928
0.7777374445858056
0.5246492358338846
0.5861672948142893
0.8071314420902985
0.6464971788777807
0.41735396000608177
0.67575038459271
0.4545702662858454
0.5748159145777637
0.6956249295157586
0.3592658387071266
0.7168254466993114
0.81084409535566
0.4579650358197428
0.38711863771988525
0.35415729108959904
0.6339922510173187
0.47905849317881954
0.6438775925060984
0.6004372438967741
0.41483457928289147
0.3262693721574454
0.4650220353061963
0.308402441247278
0.5895525491903175
0.2502044087044077
0.5760948353369746
0.6342514618650344
0.33279484195101555
0.6015053606173661
0.31490416168734275
0.7745822871404514
0.4762008297456877
0.44252857209357344
0.7061772970505765
0.8508510478997255
0.69149891009924
0.628016624576921
0.4276424166884028
0.701017361706566
0.5599201508452667
0.6223191754559282
0.4092594611986424
0.567558047685111
0.5705951428326004
0.7854669510762095
0.49340826174472785
0.687087860628328
0.4036024281079148
0.7361383952371009
0.6675650544652777
0.6682338510230059
0.43983666491680135
0.550819461479754
0.6997839910431226
0.5659449248556351
0.6797230591551027
0.6160024873564572
0.6108847963886279
0.5407305981545095
0.6754324263159613
0.44638200837419734
0.625207255202373
0.4272342892597903
0.3495697286374997
0.6603467990779268
0.24403448823909793
0.6269483719621946
0.29806378078360746
0.3090168073796721
0.5131356213995516
0.4652860613763172
0.5974989042205452
0.6738284544920656
0.6267971416177018
0.4944918152901047
0.5473024466871397
0.5440027206962685
0.46342235424121103
0.6453794831879693
0.4621211985039272
0.4023127850303388
0.4965896701049229
0.5965805308467087
0.311592015015577
0.20379140909368987
0.5072432778248547
0.7974093678451346
0.41646308107664454
0.3839114425284526
0.505386919689312
0.6511916431484419
0.6915940766463078
0.5261419300530228
0.32960473618981617
0.3516132131693015
0.7229128284798682
0.31589075678671436
0.2759904026143269
0.23756009606480966
0.5022543041795455
0.7013682496541898
0.40128574709523124
0.38191601627214194
0.6704348169054514
0.42912401730056277
0.6837578860813153
0.250263483758706
0.24593649480925664
0.7909010479093213
0.46187649270450143
0.7922089919894689
0.33463347897552137
0.6685803021506621
0.38534169772586285
0.7985984621263468
0.8140805183423174
0.6261650492034769
0.6685919415762034
0.8333735134003402
0.8058588562246103
0.6050294930169902
0.728168611347365
0.4195975245757876
0.6547106583327493
0.3321618184918007
0.5739436368136023
0.4134932867467272
0.7565373455356007
0.4577278034303119
0.4799074117843986
0.8441330688441198
0.8431950347190699
0.5720122747763388
0.7380076376217918
0.5680099784841517
0.4622065536024957
0.4149757337373899
0.41203550370107833
0.34804750128344286
0.6526246369500978
0.5127834338440254
0.5956041378598746
0.30594736625234215
0.3648438568434814
0.5873096064287427
0.384560787622982
0.6966886011469082
0.7071460241252289
0.7639139038608038
0.49992479878761814
0.5891109629337351
0.32138541237429913
0.2872654176468073
0.7052796856622574
0.3822020128118413
0.6267051678771377
0.8205195126273409
0.7441830753465147
0.885001043937117
0.5716558317711892
0.8202963156527252
0.4317814457174681
0.6478470051985313
0.7445680415338342
0.8753467453018267
0.4195151060901011
0.48887495294033073
0.3283192081861964
0.4806870912205119
0.6035386359125168
0.5633491971945598
0.4703023973558834
0.295146077672053
0.34398239294218425
0.5724714721196148
0.43265120143107116
0.3466002881794015
0.24264483837843026
0.21987784183908957
0.22386224176286387
0.5801296349805221
0.6985817286470616
0.6881339687618084
0.7036129125089263
0.6129266852341104
0.37940845559452485
0.565753190438488
0.697771043424007
0.3978618813975327
0.6928634017279571
0.7135052709246558
0.6476424648249522
0.42367757425697783
0.7351091145482904
0.7187639412400424
0.45773384826167834
0.6634162881782445
0.39125650654771754
0.5584566291729889
0.6819328278915705
0.7809294759898422
0.6253113470291686
0.6529421150295046
0.3466557206515915
0.30844166418712604
0.5242870693637043
0.5965941775728988
0.8548099117446447
0.6619306311166602
0.6743424648591062
0.5431067659595585
0.7243533487752865
0.5843486916071092
0.637203189011187
0.43586957948413274
0.716780260542333
0.6014277107553837
0.3515068960977699
0.46586307298709095
0.6349534084755555
0.6005585251847145
0.8521838969482354
0.4062777337662312
0.47950565129596323
0.7614000404573588
0.8532875991570849
0.43333085356668644
0.4910375583750935
0.3281738602642949
0.4097348956732988
0.5772746253412873
0.7731325447287438
0.5792084318146394
0.43104831873413435
0.6497716907626815
0.6989515270985893
0.7525957482992411
0.6001409356254394
0.5902658562576877
0.6158152929758917
0.632564943636923
0.8851530108199472
0.2885045268422493
0.3520567693042341
0.5724320380092114
0.36446194310372354
0.6911239069552318
0.49538444633568957
0.6942325970621804
0.7558007050790047
0.5234489591307576
0.29215753568946
0.541214967041338
0.3647196192922277
0.37846520763370595
0.6802095206978095
0.4652177128915172
0.7494719265189905
0.7139882358991296
0.6622224188827986
0.5699178443433656
0.6399577048742024
0.8341144525377719
0.4254824568610544
0.639761416473488
0.33213664194406883
0.3048993823040296
0.7131739243976796
0.8837646388927004
0.6279702627370105
0.6754044838663208
0.6639266509331649
0.6587114598037204
0.40183049696105766
0.3861077804546428
0.45464135539933853
0.6619097097912353
0.694301844501792
0.6392871200644665
0.46841911496991484
0.46591769898802343
0.32700508667111255
0.5517536811337974
0.40478052024954536
0.7518875049775092
0.8425957913991243
0.8468458113699878
0.6360984714206692
0.7205780214933268
0.4163887842857575
0.26704643989731547
0.5045846841233782
0.3326563774513735
0.63575934767167
0.6962827238942
0.6520669180424652
0.3461461743744368
0.44326269369385396
0.3872261235579418
0.5217027002537877
0.624926924448537
0.9104965625878866
0.4775570862671977
0.804020717590839
0.9309837403641873
0.4689863206498493
0.5104467117966767
0.4411839314381074
0.38863137187078295
0.4231616369318944
0.7145482646450855
0.6958361052017145
0.6434213768548939
0.4881930747935922
0.3462565630556953
0.28252698114700386
0.45560775005244164
0.4793845202242585
0.4281479623707235
0.670863884635047
0.4815954559509513
0.6886608267084362
0.5402642306358308
0.3747783152501283
0.2770703138983892
0.3250197158656658
0.7202772847245673
0.607587593745946
0.35697233800433525
0.536233604992781
0.6845024136688375
0.7803749454057364
0.6163361125831509
0.9083593606992093
</DataArray>
<DataArray type="Float64" Name="Imag part" format="ascii">
0.0
0.0
0.0
0.0
0.0
0.0
0.0
0.0
0.0
0.0
0.0
0.0
0.0
0.0
0.0
0.0
0.0
0.0
0.0
0.0
0.0
0.0
0.0
0.0
0.0
0.0
0.0
0.0
0.0
0.0
0.0
0.0
0.0
0.0
0.0
0.0
0.0
0.0
0.0
0.0
0.0
0.0
0.0
0.0
0.0
0.0
0.0
0.0
0.0
0.0
0.0
0.0
0.0
0.0
0.0
0.0
0.0
0.0
0.0
0.0
0.0
0.0
0.0
0.0
0.0
0.0
0.0
0.0
0.0
0.0
0.0
0.0
0.0
0.0
0.0
0.0
0.0
0.0
0.0
0.0
0.0
0.0
0.0
0.0
0.0
0.0
0.0
0.0
0.0
0.0
0.0
0.0
0.0
0.0
0.0
0.0
0.0
0.0
0.0
0.0
0.0
0.0
0.0
0.0
0.0
0.0
0.0
0.0
0.0
0.0
0.0
0.0
0.0
0.0
0.0
0.0
0.0
0.0
0.0
0.0
0.0
0.0
0.0
0.0
0.0
0.0
0.0
0.0
0.0
0.0
0.0
0.0
0.0
0.0
0.0
0.0
0.0
0.0
0.0
0.0
0.0
0.0
0.0
0.0
0.0
0.0
0.0
0.0
0.0
0.0
0.0
0.0
0.0
0.0
0.0
0.0
0.0
0.0
0.0
0.0
0.0
0.0
0.0
0.0
0.0
0.0
0.0
0.0
0.0
0.0
0.0
0.0
0.0
0.0
0.0
0.0
0.0
0.0
0.0
0.0
0.0
0.0
0.0
0.0
0.0
0.0
0.0
0.0
0.0
0.0
0.0
0.0
0.0
0.0
0.0
0.0
0.0
0.0
0.0
0.0
0.0
0.0
0.0
0.0
0.0
0.0
0.0
0.0
0.0
0.0
0.0
0.0
0.0
0.0
0.0
0.0
0.0
0.0
0.0
0.0
0.0
0.0
0.0
0.0
0.0
0.0
0.0
0.0
0.0
0.0
0.0
0.0
0.0
0.0
0.0
0.0
0.0
0.0
0.0
0.0
0.0
0.0
0.0
0.0
0.0
0.0
0.0
0.0
0.0
0.0
0.0
0.0
0.0
0.0
0.0
0.0
0.0
0.0
0.0
0.0
0.0
0.0
0.0
0.0
0.0
0.0
0.0
0.0
0.0
0.0
0.0
0.0
0.0
0.0
0.0
0.0
0.0
0.0
0.0
0.0
0.0
0.0
0.0
0.0
0.0
0.0
0.0
0.0
0.0
0.0
0.0
0.0
0.0
0.0
0.0
0.0
0.0
0.0
0.0
0.0
0.0
0.0
0.0
0.0
0.0
0.0
0.0
0.0
0.0
0.0
0.0
0.0
0.0
0.0
0.0
0.0
0.0
0.0
0.0
0.0
0.0
0.0
0.0
0.0
0.0
0.0
0.0
0.0
0.0
0.0
0.0
0.0
0.0
0.0
0.0
0.0
0.0
0.0
0.0
0.0
0.0
0.0
0.0
0.0
0.0
0.0
0.0
0.0
0.0
0.0
0.0
0.0
0.0
0.0
0.0
0.0
0.0
0.0
0.0
0.0
0.0
0.0
0.0
0.0
0.0
0.0
0.0
0.0
0.0
0.0
0.0
0.0
0.0
0.0
0.0
0.0
0.0
0.0
0.0
0.0
0.0
0.0
0.0
0.0
0.0
0.0
0.0
0.0
0.0
0.0
0.0
0.0
0.0
0.0
0.0
0.0
0.0
0.0
0.0
0.0
0.0
0.0
0.0
0.0
0.0
0.0
0.0
0.0
0.0
0.0
0.0
0.0
0.0
0.0
0.0
0.0
0.0
0.0
0.0
0.0
0.0
0.0
0.0
0.0
0.0
0.0
0.0
0.0
0.0
0.0
0.0
0.0
0.0
0.0
0.0
0.0
0.0
0.0
0.0
0.0
0.0
0.0
0.0
0.0
0.0
0.0
0.0
0.0
0.0
0.0
0.0
0.0
0.0
0.0
0.0
0.0
0.0
0.0
0.0
0.0
0.0
0.0
0.0
0.0
0.0
0.0
0.0
0.0
0.0
0.0
0.0
0.0
0.0
0.0
0.0
0.0
0.0
0.0
0.0
0.0
0.0
0.0
0.0
0.0
0.0
0.0
0.0
0.0
0.0
0.0
0.0
0.0
0.0
0.0
0.0
0.0
0.0
0.0
0.0
0.0
0.0
0.0
0.0
0.0
0.0
0.0
0.0
0.0
0.0
0.0
0.0
0.0
0.0
0.0
0.0
0.0
0.0
0.0
0.0
0.0
0.0
0.0
0.0
0.0
0.0
0.0
0.0
0.0
0.0
0.0
0.0
0.0
0.0
0.0
0.0
0.0
0.0
0.0
0.0
0.0
0.0
0.0
0.0
0.0
0.0
0.0
0.0
0.0
0.0
0.0
0.0
0.0
0.0
0.0
0.0
0.0
0.0
0.0
0.0
0.0
0.0
</DataArray>
</PointData>
</Piece>
</UnstructuredGrid>
</VTKFile>
