<VTKFile type="UnstructuredGrid" version="1.0" byte_order="LittleEndian" header_type="UInt64">
<UnstructuredGrid>
<Piece NumberOfPoints="561" NumberOfCells="1026">
<Points>
<DataArray NumberOfComponents="3" type="Float64">
0.0 0.0 0.0
1.0 0.0 0.0
1.0 1.0 0.0
0.0 1.0 0.0
0.2 0.25 0.0
0.15 0.2 0.0
0.2 0.15 0.0
0.25 0.2 0.0
0.2 0.55 0.0
0.15 0.5 0.0
0.2 0.45 0.0
0.25 0.5 0.0
0.2 0.8500000000000001 0.0
0.15 0.8 0.0
0.2 0.75 0.0
0.25 0.8 0.0
0.5 0.25 0.0
0.45 0.2 0.0
0.5 0.15 0.0
0.55 0.2 0.0
0.5 0.55 0.0
0.45 0.5 0.0
0.5 0.45 0.0
0.55 0.5 0.0
0.5 0.8500000000000001 0.0
0.45 0.8 0.0
0.5 0.75 0.0
0.55 0.8 0.0
0.8 0.25 0.0
0.75 0.2 0.0
0.8 0.15 0.0
0.8500000000000001 0.2 0.0
0.8 0.55 0.0
0.75 0.5 0.0
0.8 0.45 0.0
0.8500000000000001 0.5 0.0
0.8 0.8500000000000001 0.0
0.75 0.8 0.0
0.8 0.75 0.0
0.8500000000000001 0.8 0.0
0.1646446608727939 0.2353553389914487 0.0
0.1646446610085513 0.1646446608727939 0.0
0.2353553391272061 0.1646446610085513 0.0
0.2353553389914487 0.2353553391272061 0.0
0.1646446608926911 0.5353553390113459 0.0
0.1646446610424293 0.464644660838916 0.0
0.2353553391217903 0.4646446610031355 0.0
0.2353553389872769 0.5353553391313779 0.0
0.1646446608926911 0.835355339011346 0.0
0.1646446610127232 0.7646446608686222 0.0
0.2353553391073089 0.7646446609886541 0.0
0.09999999999981467 0.0 0.0
0.1999999999995579 0.0 0.0
0.2999999999992664 0.0 0.0
0.3999999999989749 0.0 0.0
0.4999999999986943 0.0 0.0
0.5999999999989468 0.0 0.0
0.69999999999921 0.0 0.0
0.7999999999994734 0.0 0.0
0.8999999999997368 0.0 0.0
0.464644660838916 0.2353553389575707 0.0
0.4646446610031355 0.1646446608782098 0.0
0.5353553391313779 0.1646446610127232 0.0
0.5353553390113459 0.2353553391073089 0.0
0.4646446609191431 0.535355339037798 0.0
0.4646446610370135 0.4646446608443318 0.0
0.5353553391259621 0.4646446610073074 0.0
0.5353553390335396 0.5353553390851152 0.0
0.4646446609191431 0.835355339037798 0.0
0.4646446610073074 0.7646446608740379 0.0
1.0 0.09999999999981467 0.0
1.0 0.1999999999995579 0.0
1.0 0.2999999999992664 0.0
1.0 0.3999999999989749 0.0
1.0 0.4999999999986943 0.0
1.0 0.5999999999989468 0.0
1.0 0.69999999999921 0.0
1.0 0.7999999999994734 0.0
1.0 0.8999999999997368 0.0
0.5353553390335396 0.8353553390851153 0.0
0.7646446608686222 0.2353553389872769 0.0
0.7646446609886541 0.1646446608926911 0.0
0.8353553391313779 0.1646446610127232 0.0
0.835355339011346 0.2353553391073089 0.0
0.7646446609148848 0.5353553390335396 0.0
0.7646446609622021 0.4646446609191431 0.0
0.8353553391259622 0.4646446610073074 0.0
0.8353553390335396 0.5353553390851152 0.0
0.7646446609148848 0.8353553390335396 0.0
0.8999999999995836 1.0 0.0
0.7999999999999998 1.0 0.0
0.7000000000006934 1.0 0.0
0.6000000000013869 1.0 0.0
0.5000000000020587 1.0 0.0
0.4000000000016644 1.0 0.0
0.3000000000012483 1.0 0.0
0.2000000000008322 1.0 0.0
0.100000000000416 1.0 0.0
0.8353553390851153 0.7646446609664604 0.0
0.8353553390335396 0.8353553390851153 0.0
0.0 0.8999999999995836 0.0
0.0 0.7999999999999998 0.0
0.0 0.7000000000006934 0.0
0.0 0.6000000000013869 0.0
0.0 0.5000000000020587 0.0
0.0 0.4000000000016644 0.0
0.0 0.3000000000012483 0.0
0.0 0.2000000000008322 0.0
0.0 0.100000000000416 0.0
0.2353553389872769 0.8353553391313779 0.0
0.5353553390851152 0.7646446609664604 0.0
0.7646446609664604 0.7646446609148848 0.0
0.3433898395275172 0.3506711751366992 0.0
0.6555223459501304 0.3454869675941158 0.0
0.345221666793714 0.6526563204031345 0.0
0.6500000000000001 0.6500000000000001 0.0
0.3376521968691558 0.1382043895083632 0.0
0.1382043895133763 0.3376521967853719 0.0
0.662347803202637 0.1382043895520366 0.0
0.1382043895520382 0.6376521967973626 0.0
0.3623478031405708 0.861795610525198 0.0
0.8617956104989657 0.362347803199541 0.0
0.6376521968143625 0.8617956104085769 0.0
0.8617956104085793 0.6623478031856377 0.0
0.4577442078074788 0.351070261471894 0.0
0.35 0.4583333333333333 0.0
0.6459020038819421 0.4617868175191547 0.0
0.4583333333333332 0.65 0.0
0.5530890607669136 0.3613201225761349 0.0
0.3273703710454821 0.5577318018698613 0.0
0.6312499999999998 0.5541666666666667 0.0
0.5541666666666664 0.6687499999999998 0.0
0.2439339827500904 0.3534009741251356 0.0
0.3534009741333171 0.2439339827555447 0.0
0.645542633255165 0.2494789938936431 0.0
0.7540219891571036 0.3491277921959138 0.0
0.249952272779098 0.6530833888937803 0.0
0.3484148065846917 0.7545879643268294 0.0
0.6531222076166924 0.7497400369911574 0.0
0.7505210060732426 0.645542633241858 0.0
0.4039637890308081 0.5862884104434813 0.0
0.412084139813457 0.4119563048845528 0.0
0.5880044795246634 0.2926772259834077 0.0
0.7067067285638935 0.5871080864771689 0.0
0.4090296395354618 0.7151635620813825 0.0
0.710197217617496 0.4092669477118412 0.0
0.5705712315775688 0.6017363862836691 0.0
0.4129062502019396 0.2900031303949859 0.0
0.2875759077313267 0.4120913242586335 0.0
0.2857822245280523 0.286403119234693 0.0
0.7121827393464313 0.2851331787597786 0.0
0.7150652678408427 0.7134888166540321 0.0
0.2854198242405634 0.7144204535284502 0.0
0.596355661119427 0.4317463272007821 0.0
0.5195729035608143 0.3137550414159756 0.0
0.6814429780261859 0.5177727375312514 0.0
0.3826688547938011 0.5174013060277558 0.0
0.2742095802077177 0.5888719740076885 0.0
0.5881583496321303 0.7258694804636643 0.0
0.512916648925923 0.6130876559396792 0.0
0.4956876225771484 0.3916916101055488 0.0
0.6091203914685013 0.4955611555134115 0.0
0.3081086880202347 0.4951904105963052 0.0
0.4999999999999998 0.6913194444444444 0.0
0.05985636373714733 0.4420530910850028 0.0
0.9358864235191767 0.1421319380791616 0.0
0.2579469087763238 0.940143636305655 0.0
0.2572591731173738 0.07045208466228416 0.0
0.06411357656219142 0.1421319379513652 0.0
0.5579469089030646 0.05985636373221363 0.0
0.1421319380781085 0.06411357648234975 0.0
0.07045208466695235 0.2572591730084375 0.0
0.9295479153439864 0.4427408269776643 0.0
0.05985636373118473 0.7420530910991101 0.0
0.857868062047356 0.06411357656456783 0.0
0.9401436362836448 0.2579469088865591 0.0
0.4420530912261119 0.05985636371218914 0.0
0.1421319379601523 0.9358864234555444 0.0
0.07045208468232296 0.5572591730179106 0.0
0.06411357648701377 0.8578680619420427 0.0
0.7427408269774269 0.07045208468143335 0.0
0.9401436362796813 0.5579469088793961 0.0
0.7420530911272205 0.9401436362825517 0.0
0.9358864234788886 0.8578680620215167 0.0
0.557259173049598 0.9295479153066358 0.0
0.8578680619732905 0.9358864235092152 0.0
0.9295479153065642 0.7427408269514637 0.0
0.4427408269129883 0.9295479153609203 0.0
0.3143918185721838 0.19209726506541 0.0
0.1920972650952285 0.3143918185536934 0.0
0.685543141712359 0.1913525648670957 0.0
0.1935957104113677 0.6144796997410339 0.0
0.809504244004653 0.3856396610029235 0.0
0.3856396609623359 0.8095042440251847 0.0
0.6144796997484514 0.8064042895564912 0.0
0.8086474350951405 0.6855431417113358 0.0
0.1892629235394513 0.3860472153512443 0.0
0.3860472153840332 0.1892629235625572 0.0
0.6139842252634227 0.1894054608058127 0.0
0.1892545645570567 0.6860837355980296 0.0
0.8107370764580965 0.3139527846426451 0.0
0.3139162643942123 0.8107454354581183 0.0
0.6860472153811453 0.8107370764108126 0.0
0.8105945391657486 0.6139842252475645 0.0
0.4611414873717721 0.5920261295844056 0.0
0.64588989174686 0.4045281252147507 0.0
0.4077563014273697 0.4649729498043385 0.0
0.1352479275248563 0.4080729418485258 0.0
0.5919270581242425 0.1352479275322719 0.0
0.1352479275322713 0.7080729418757574 0.0
0.8647520724968161 0.2919270581077186 0.0
0.4080729420117861 0.1352479275090695 0.0
0.291927057990262 0.8647520725184488 0.0
0.708072941916764 0.8647520724650545 0.0
0.8647520724650537 0.5919270580832346 0.0
0.4023937232125269 0.3536208203306642 0.0
0.3541738588628671 0.4031000864928675 0.0
0.4048342686835711 0.6447434006119712 0.0
0.71316561210788 0.4653396854661837 0.0
0.2874850431956504 0.1351923300651653 0.0
0.1351923301412642 0.287485043121117 0.0
0.4125149568291094 0.8648076699653156 0.0
0.8648076698863019 0.4125149568736285 0.0
0.7125149568579259 0.1351923301736325 0.0
0.1351923301736628 0.5874850431419016 0.0
0.5874850431667454 0.8648076697977991 0.0
0.8648076697977938 0.7125149568332956 0.0
0.4669565156295485 0.2870570218847242 0.0
0.590687671546755 0.2407081407199352 0.0
0.7592918592591411 0.5906876715490426 0.0
0.628314831649785 0.604448761006592 0.0
0.2943959469377353 0.644686885458281 0.0
0.6435962868630796 0.7139205107269279 0.0
0.3541603945295475 0.6083266947287502 0.0
0.6381293107031111 0.2969749241621514 0.0
0.7033184070609535 0.6390130951465713 0.0
0.2365527442584948 0.4117538692896706 0.0
0.7538888166046027 0.2890016099317594 0.0
0.7108528717570168 0.7535478998948462 0.0
0.412428250006682 0.2451687953606375 0.0
0.3646049217394279 0.291369123885017 0.0
0.2997666023716281 0.3650313382879617 0.0
0.703282664384316 0.3560855151264761 0.0
0.358138582971924 0.7055356210530691 0.0
0.9402343666375695 0.6245829212181908 0.0
0.6754170787829508 0.9402343666380462 0.0
0.3245829211491601 0.940234366681378 0.0
0.3754170788557261 0.05976563334184509 0.0
0.6245829212382927 0.05976563334993901 0.0
0.05976563334976909 0.6754170787621089 0.0
0.9402343666753659 0.3245829212273756 0.0
0.05976563333581809 0.3754170787494793 0.0
0.6039102987483714 0.3686712308599859 0.0
0.6012930499303716 0.6517346089211749 0.0
0.2864297804870796 0.2405172437802475 0.0
0.4136086917315461 0.7616115504825639 0.0
0.2404795313617054 0.2864674927196282 0.0
0.758353287519132 0.4143267069527965 0.0
0.2830927819934522 0.761721308423855 0.0
0.2383775627313655 0.7168147508404688 0.0
0.7194341630926276 0.2412202997664903 0.0
0.7588080497214451 0.7196207455854151 0.0
0.5781661925444088 0.5462409467938331 0.0
0.5425156010469789 0.4175588442268487 0.0
0.2838157140155749 0.5421456515675847 0.0
0.5416674579335911 0.7178559517551015 0.0
0.4572520847679629 0.4146290290264605 0.0
0.4514650015977484 0.7124530617828471 0.0
0.2825175937747805 0.4632535898271452 0.0
0.419560766274629 0.545841732107458 0.0
0.5417004983287753 0.2884467063260733 0.0
0.7105882437563859 0.5409816789747722 0.0
[...]
<PointData Scalars="solution">
<DataArray type="Float64" Name="Real part" format="ascii">
0.20255431722043263
0.47907906704424397
0.559623323327765
0.30131614672111917
0.3213490504467216
0.2720335376584977
0.28750335300491914
0.3442560382372417
0.4365929463111937
0.3794347509215805
0.4001156009657369
0.4650263501948372
0.4922635265329411
0.46256820277388666
0.5038177210290269
0.5478268112704857
0.6531650979231385
0.5701472647607354
0.5901370338269255
0.6754010012224315
0.7723270710097137
0.7010414379370302
0.7419374990085911
0.8087002861452307
0.7898763119806613
0.7763005065950744
0.8376486355626305
0.8703283878512553
0.9185893090024455
0.8781983004760632
0.8358894277726003
0.8658094925522183
1.0334798146545354
1.0150435430094729
1.005999743290975
0.9894578040048582
1.024486864338946
1.0664568078524055
1.0874295451297806
1.033547590336065
0.2904138160108257
0.27043389750450453
0.31671659521905676
0.3413644954506854
0.40080982135653254
0.3782809561091732
0.4379880942511203
0.46121989637762756
0.46834762680670894
0.4756399696343395
0.5348905912335074
0.20869048615734598
0.23479447629865907
0.2752903171967382
0.33704925329781177
0.39780781771302615
0.44255993023863166
0.4845541957540911
0.5187374404289662
0.4997003762016364
0.6063680480786694
0.5658840398113525
0.6362426137100087
0.6827924317252854
0.7244022019123638
0.7009085637931846
0.778347847576229
0.8009357498877187
0.7649757052671545
0.792796000023895
0.5073218924537292
0.5517525488803942
0.5700721254456205
0.5908928713761653
0.6259725220043719
0.6263376003820218
0.6271407784584438
0.6362277326016365
0.5925831355435193
0.8299640762074009
0.9064417000118764
0.8433340092977228
0.8433373734728765
0.8999504872458967
1.0312576398517583
1.000789903394462
0.9836494504254566
1.0144953654069992
1.0444716252041717
0.58904879180498
0.61915548139872
0.5935862864335847
0.5482920793073044
0.5153607508655882
0.4503533543978159
0.39465969783287924
0.35308594468332316
0.31631220421088796
1.0542058636167344
1.0217292206316888
0.3078554260317719
0.3156953288092549
0.3065112976677362
0.2884879652635518
0.2749058879459793
0.2530210671302951
0.22939428741333448
0.21515103875830874
0.20421506073529014
0.5269670598572355
0.8636103062946912
1.085318238765347
0.37889464040844417
0.5907063946187774
0.45032612411028416
0.6535840171053132
0.32933702080461574
0.2683755144741834
0.5501481202300093
0.34000292509727986
0.48548802500407845
0.6691840160330523
0.6568621372385679
0.7272158441205686
0.49486900464649525
0.43708168666673736
0.6622552576089142
0.5704360152809835
0.5599359524048606
0.4378516161359529
0.6657287785768947
0.6342400786141893
0.32330679172431787
0.37371313214847246
0.5856164595753454
0.67793391064815
0.4015520696031671
0.49092106015280185
0.7034394666511369
0.7414035138135819
0.5168605816732521
0.486373193194235
0.5618784337309142
0.7258074660555953
0.5509305540369842
0.6894314362787511
0.6418424842961609
0.44389385662099273
0.37390026062628384
0.3321944528312842
0.6577558117842802
0.7620206948008816
0.445408725098104
0.6308996155868845
0.5449529133399768
0.7267531220673289
0.4991544301540077
0.41278543037272836
0.6860831803638745
0.6262629463708943
0.5671836607351803
0.6747460329250867
0.4261020989380492
0.6442019455162389
0.26987158339844797
0.5553597660831332
0.3874352817493673
0.26286625542030473
0.2114238218838158
0.4413059543770984
0.219750157515728
0.22962037322562126
0.6536420132213961
0.3232649083743138
0.5408959861047316
0.5905384710741555
0.3773912441002212
0.3409669395462499
0.29680318733959354
0.32520340913244117
0.5435526622716719
0.659062265245132
0.6429969571312297
0.6504001578702087
0.5730053690042407
0.6439855132054765
0.6854985828878124
0.5128087507174046
0.3357081957929553
0.2919558464423008
0.6294059996719528
0.37454181078921983
0.7350435650947167
0.5481746101485461
0.7023854344013911
0.7993134916472978
0.3154640367856334
0.404501296641201
0.5670817096166739
0.3924173966556199
0.7069821999538042
0.4783942608441772
0.7573818433120981
0.7824608773085185
0.6020657620498425
0.6180172581892638
0.5306832597817408
0.2973144508748377
0.5251518079457697
0.3684067453964288
0.6849500163187066
0.4041908444532516
0.4500388151415411
0.741214774697037
0.7597392279060862
0.4360931922932111
0.4110854251845367
0.5082848029416657
0.785020578871526
0.3002696051299586
0.2598386616844607
0.5526194064444175
0.7254075438910859
0.611241618151342
0.3387089339960995
0.660480331861205
0.7776692050662399
0.5245925736434454
0.5861064494366031
0.8070630230378731
0.6464312139848598
0.4172995899092202
0.6756838375407923
0.45451391302224803
0.5747533807586914
0.6955574502330556
0.35921693632427926
0.7167603572023112
0.8107761446252604
0.4579118566621644
0.3870667669909517
0.35410689265240486
0.6339273952251488
0.4790012735006919
0.6438104965867433
0.6003724893898361
0.4147794659731873
0.3262207177916967
0.46496412332997744
0.30835477220314905
0.5894878342496377
0.25016121985508216
0.5760321500318252
0.634185999261397
0.332746694804145
0.6014458015722608
0.31485713677894483
0.7745155070977553
0.476145697908909
0.44247536512002617
0.7061134643898526
0.8507823735905111
0.6914338892997539
0.627954757129689
0.4275890291204298
0.700952841892613
0.5598619952430884
0.6222580600215425
0.4092074827615623
0.5674995824878598
0.570535199919259
0.7853993406420484
0.4933512598597554
0.6870236676431206
0.4035507169346342
0.7360726641886531
0.6674982911840571
0.6681701083577906
0.439781211466482
0.550758947960732
0.6997171403644037
0.5658825406838193
0.679655988914915
0.6159392814203942
0.6108209393585626
0.5406709473619987
0.675366576751378
0.44632723739216296
0.6251432194341995
0.42717953116652857
0.3495195607589438
0.6602813923252943
0.2439918463839758
0.6268827042631884
0.2980170894118031
0.3089692850251816
0.5130759590855418
0.46522886138010244
0.5974347127204738
0.6737610304800054
0.6267324178044222
0.49443502951773954
0.5472425229558552
0.5439429474316795
0.46336715986559296
0.6453141523909087
0.46206566168201957
0.4022600428149811
0.4965314980883937
0.5965153897824093
0.31154364601032686
0.2037522172825714
0.5071823034815958
0.7973424673324759
0.4164095384088106
0.3838594571616487
0.5053319207271372
0.6511269685112291
0.691528143260359
0.5260836161463982
0.3295559899710933
0.35156326086101874
0.7228455195687123
0.3158450835721788
0.2759465433311664
0.23751946993100478
0.5021983695886408
0.7013039087319557
0.4012350977112243
0.3818667770793265
0.6703725378255141
0.42907126928087774
0.6836947358282198
0.25022174557011095
0.24589512349890696
0.790833701609666
0.4618231905978646
0.7921411364308134
0.3345865300800887
0.6685184206827102
0.38529231190481705
0.798531615659563
0.8140132893260763
0.6261043797245296
0.6685289421780836
0.8333055388420567
0.805791992801775
0.6049664237059293
0.7281006686177011
0.41954367371693235
0.6546457755084063
0.33211540491339175
0.5738844455068179
0.41344257568038134
0.756471814912131
0.4576758353449551
0.4798524289006052
0.8440644613055713
0.8431276136121764
0.5719506382920131
0.7379396685123649
0.5679524943339304
0.46215052887289393
0.41492202300374476
0.4119831684282664
0.34799810067739345
0.6525591505791973
0.5127257723568898
0.5955423303074908
0.30590075327863253
0.3647940076188251
0.5872480371742818
0.38450924849339096
0.6966225579140957
0.7070794614799952
0.763845389929186
0.4998676051589383
0.5890485876941509
0.3213385343714415
0.28722094989253916
0.7052171902981452
0.38215223909647
0.626645747812347
0.8204523642824376
0.7441177747124795
0.8849322372474945
0.5715982441315453
0.8202289061992202
0.4317261831457131
0.647784756875973
0.7445034246064277
0.8752782983101426
0.4194617753842556
0.48881715935094483
0.3282715951572445
0.4806313612238768
0.603477025671495
0.5632909446576775
0.47024812129707133
0.2951004750924965
0.34393374407423866
0.5724101982790328
0.4325971409220358
0.3465510539761937
0.24260269064330317
0.219837730081994
0.2238217589867747
0.5800677142301736
0.6985155302706373
0.6880677852373255
0.7035460007728909
0.6128633483648857
0.3793570097137262
0.5656919578573737
0.6977039630817619
0.39780925180843113
0.692797195895741
0.7134389117247257
0.6475763662092205
0.42362479414461024
0.7350438413989157
0.7186989805835199
0.45767828160616414
0.6633499615127634
0.39120610595377897
0.5583949424200981
0.6818665930715642
0.7808609437553421
0.6252487724598113
0.6528814015864799
0.3466065870322909
0.308394753371195
0.5242290421927789
0.5965339382075721
0.8547412189860559
0.6618675341884823
0.6742769533877646
0.5430483880376634
0.7242869485754813
0.5842889601208875
0.6371425461754234
0.4358165968236038
0.7167166774340566
0.6013641412196192
0.35145925127865074
0.4658106233664235
0.6348880242968675
0.6004982428584108
0.8521156470582154
0.4062254458531344
0.4794494488440668
0.7613344895900523
0.8532197727684206
0.4332789569487261
0.490982192923491
0.3281261377314054
0.4096833333901764
0.577213470777457
0.7730640737140124
0.5791476382682113
0.43099420954563045
0.6497077906838871
0.6988859011191126
0.752528438194399
0.6000788120966513
0.5902023104146097
0.6157574392183136
0.6325003545324681
0.8850855741442482
0.2884591590383974
0.3520076367931733
0.5723711217556737
0.3644117222107138
0.6910578129691219
0.4953273355621842
0.6941664591367472
0.7557322666003298
0.5233905325374241
0.2921122399063874
0.5411552598833017
0.36466973178928536
0.3784151018903926
0.6801438632488992
0.4651617909656984
0.7494036329604121
0.7139218188492011
0.6621612479894589
0.5698611702040502
0.6398981438188479
0.834047329107062
0.42542831030995
0.639695485481607
0.3320890650156968
0.3048536341491268
0.7131108661681327
0.8836957667142177
0.6279054724076676
0.6753398331228891
0.6638613687481592
0.6586466410074745
0.40177743194183624
0.386055513036408
0.45458603844702167
0.6618437909374254
0.694239515567909
0.6392283999780207
0.46836675277785167
0.465863630234566
0.326959286346725
0.5516959451425303
0.40473067646191796
0.7518224026426439
0.84252746561665
0.8467786658368645
0.6360388993783693
0.7205117538028137
0.4163346243972257
0.2670024136002994
0.5045257773233545
0.33260776322312524
0.6356940384448235
0.6962149764788866
0.6520014136310992
0.3460970638154356
0.44320697595373204
0.3871770679236646
0.5216488628600302
0.62486667675218
0.9104279263584053
0.4774995750055336
0.8039555283994642
0.9309153828841606
0.4689303223880964
0.5103903271900792
0.44112930508962284
0.38858042214326616
0.42310742744444896
0.7144805620869378
0.6957700097628994
0.6433566099254177
0.48813559053699523
0.3462077518815619
0.2824823407091425
0.4555517882525038
0.4793274473724134
0.4280939789225312
0.6707969456923762
0.48153984224141066
0.6885938978657525
0.5402043630768043
0.37472670930961477
0.2770258196759917
0.32497202764513156
0.7202107569955465
0.6075261227173308
0.35692278268297695
0.5361754164372426
0.684436953031347
0.7803064740888892
0.6162767834089823
0.9082913030174021
</DataArray>
<DataArray type="Float64" Name="Imag part" format="ascii">
0.0
0.0
0.0
0.0
0.0
0.0
0.0
0.0
0.0
0.0
0.0
0.0
0.0
0.0
0.0
0.0
0.0
0.0
0.0
0.0
0.0
0.0
0.0
0.0
0.0
0.0
0.0
0.0
0.0
0.0
0.0
0.0
0.0
0.0
0.0
0.0
0.0
0.0
0.0
0.0
0.0
0.0
0.0
0.0
0.0
0.0
0.0
0.0
0.0
0.0
0.0
0.0
0.0
0.0
0.0
0.0
0.0
0.0
0.0
0.0
0.0
0.0
0.0
0.0
0.0
0.0
0.0
0.0
0.0
0.0
0.0
0.0
0.0
0.0
0.0
0.0
0.0
0.0
0.0
0.0
0.0
0.0
0.0
0.0
0.0
0.0
0.0
0.0
0.0
0.0
0.0
0.0
0.0
0.0
0.0
0.0
0.0
0.0
0.0
0.0
0.0
0.0
0.0
0.0
0.0
0.0
0.0
0.0
0.0
0.0
0.0
0.0
0.0
0.0
0.0
0.0
0.0
0.0
0.0
0.0
0.0
0.0
0.0
0.0
0.0
0.0
0.0
0.0
0.0
0.0
0.0
0.0
0.0
0.0
0.0
0.0
0.0
0.0
0.0
0.0
0.0
0.0
0.0
0.0
0.0
0.0
0.0
0.0
0.0
0.0
0.0
0.0
0.0
0.0
0.0
0.0
0.0
0.0
0.0
0.0
0.0
0.0
0.0
0.0
0.0
0.0
0.0
0.0
0.0
0.0
0.0
0.0
0.0
0.0
0.0
0.0
0.0
0.0
0.0
0.0
0.0
0.0
0.0
0.0
0.0
0.0
0.0
0.0
0.0
0.0
0.0
0.0
0.0
0.0
0.0
0.0
0.0
0.0
0.0
0.0
0.0
0.0
0.0
0.0
0.0
0.0
0.0
0.0
0.0
0.0
0.0
0.0
0.0
0.0
0.0
0.0
0.0
0.0
0.0
0.0
0.0
0.0
0.0
0.0
0.0
0.0
0.0
0.0
0.0
0.0
0.0
0.0
0.0
0.0
0.0
0.0
0.0
0.0
0.0
0.0
0.0
0.0
0.0
0.0
0.0
0.0
0.0
0.0
0.0
0.0
0.0
0.0
0.0
0.0
0.0
0.0
0.0
0.0
0.0
0.0
0.0
0.0
0.0
0.0
0.0
0.0
0.0
0.0
0.0
0.0
0.0
0.0
0.0
0.0
0.0
0.0
0.0
0.0
0.0
0.0
0.0
0.0
0.0
0.0
0.0
0.0
0.0
0.0
0.0
0.0
0.0
0.0
0.0
0.0
0.0
0.0
0.0
0.0
0.0
0.0
0.0
0.0
0.0
0.0
0.0
0.0
0.0
0.0
0.0
0.0
0.0
0.0
0.0
0.0
0.0
0.0
0.0
0.0
0.0
0.0
0.0
0.0
0.0
0.0
0.0
0.0
0.0
0.0
0.0
0.0
0.0
0.0
0.0
0.0
0.0
0.0
0.0
0.0
0.0
0.0
0.0
0.0
0.0
0.0
0.0
0.0
0.0
0.0
0.0
0.0
0.0
0.0
0.0
0.0
0.0
0.0
0.0
0.0
0.0
0.0
0.0
0.0
0.0
0.0
0.0
0.0
0.0
0.0
0.0
0.0
0.0
0.0
0.0
0.0
0.0
0.0
0.0
0.0
0.0
0.0
0.0
0.0
0.0
0.0
0.0
0.0
0.0
0.0
0.0
0.0
0.0
0.0
0.0
0.0
0.0
0.0
0.0
0.0
0.0
0.0
0.0
0.0
0.0
0.0
0.0
0.0
0.0
0.0
0.0
0.0
0.0
0.0
0.0
0.0
0.0
0.0
0.0
0.0
0.0
0.0
0.0
0.0
0.0
0.0
0.0
0.0
0.0
0.0
0.0
0.0
0.0
0.0
0.0
0.0
0.0
0.0
0.0
0.0
0.0
0.0
0.0
0.0
0.0
0.0
0.0
0.0
0.0
0.0
0.0
0.0
0.0
0.0
0.0
0.0
0.0
0.0
0.0
0.0
0.0
0.0
0.0
0.0
0.0
0.0
0.0
0.0
0.0
0.0
0.0
0.0
0.0
0.0
0.0
0.0
0.0
0.0
0.0
0.0
0.0
0.0
0.0
0.0
0.0
0.0
0.0
0.0
0.0
0.0
0.0
0.0
0.0
0.0
0.0
0.0
0.0
0.0
0.0
0.0
0.0
0.0
0.0
0.0
0.0
0.0
0.0
0.0
0.0
0.0
0.0
0.0
0.0
0.0
0.0
0.0
0.0
0.0
0.0
0.0
0.0
0.0
0.0
0.0
0.0
0.0
0.0
0.0
0.0
0.0
0.0
0.0
0.0
0.0
0.0
0.0
0.0
0.0
0.0
0.0
0.0
0.0
0.0
0.0
0.0
0.0
0.0
0.0
0.0
0.0
0.0
0.0
0.0
0.0
0.0
0.0
0.0
0.0
0.0
0.0
0.0
0.0
0.0
</DataArray>
</PointData>
</Piece>
</UnstructuredGrid>
</VTKFile>
