<VTKFile type="UnstructuredGrid" version="1.0" byte_order="LittleEndian" header_type="UInt64">
<UnstructuredGrid>
<Piece NumberOfPoints="561" NumberOfCells="1026">
<Points>
<DataArray NumberOfComponents="3" type="Float64">
0.0 0.0 0.0
1.0 0.0 0.0
1.0 1.0 0.0
0.0 1.0 0.0
0.2 0.25 0.0
0.15 0.2 0.0
0.2 0.15 0.0
0.25 0.2 0.0
0.2 0.55 0.0
0.15 0.5 0.0
0.2 0.45 0.0
0.25 0.5 0.0
0.2 0.8500000000000001 0.0
0.15 0.8 0.0
0.2 0.75 0.0
0.25 0.8 0.0
0.5 0.25 0.0
0.45 0.2 0.0
0.5 0.15 0.0
0.55 0.2 0.0
0.5 0.55 0.0
0.45 0.5 0.0
0.5 0.45 0.0
0.55 0.5 0.0
0.5 0.8500000000000001 0.0
0.45 0.8 0.0
0.5 0.75 0.0
0.55 0.8 0.0
0.8 0.25 0.0
0.75 0.2 0.0
0.8 0.15 0.0
0.8500000000000001 0.2 0.0
0.8 0.55 0.0
0.75 0.5 0.0
0.8 0.45 0.0
0.8500000000000001 0.5 0.0
0.8 0.8500000000000001 0.0
0.75 0.8 0.0
0.8 0.75 0.0
0.8500000000000001 0.8 0.0
0.1646446608727939 0.2353553389914487 0.0
0.1646446610085513 0.1646446608727939 0.0
0.2353553391272061 0.1646446610085513 0.0
0.2353553389914487 0.2353553391272061 0.0
0.1646446608926911 0.5353553390113459 0.0
0.1646446610424293 0.464644660838916 0.0
0.2353553391217903 0.4646446610031355 0.0
0.2353553389872769 0.5353553391313779 0.0
0.1646446608926911 0.835355339011346 0.0
0.1646446610127232 0.7646446608686222 0.0
0.2353553391073089 0.7646446609886541 0.0
0.09999999999981467 0.0 0.0
0.1999999999995579 0.0 0.0
0.2999999999992664 0.0 0.0
0.3999999999989749 0.0 0.0
0.4999999999986943 0.0 0.0
0.5999999999989468 0.0 0.0
0.69999999999921 0.0 0.0
0.7999999999994734 0.0 0.0
0.8999999999997368 0.0 0.0
0.464644660838916 0.2353553389575707 0.0
0.4646446610031355 0.1646446608782098 0.0
0.5353553391313779 0.1646446610127232 0.0
0.5353553390113459 0.2353553391073089 0.0
0.4646446609191431 0.535355339037798 0.0
0.4646446610370135 0.4646446608443318 0.0
0.5353553391259621 0.4646446610073074 0.0
0.5353553390335396 0.5353553390851152 0.0
0.4646446609191431 0.835355339037798 0.0
0.4646446610073074 0.7646446608740379 0.0
1.0 0.09999999999981467 0.0
1.0 0.1999999999995579 0.0
1.0 0.2999999999992664 0.0
1.0 0.3999999999989749 0.0
1.0 0.4999999999986943 0.0
1.0 0.5999999999989468 0.0
1.0 0.69999999999921 0.0
1.0 0.7999999999994734 0.0
1.0 0.8999999999997368 0.0
0.5353553390335396 0.8353553390851153 0.0
0.7646446608686222 0.2353553389872769 0.0
0.7646446609886541 0.1646446608926911 0.0
0.8353553391313779 0.1646446610127232 0.0
0.835355339011346 0.2353553391073089 0.0
0.7646446609148848 0.5353553390335396 0.0
0.7646446609622021 0.4646446609191431 0.0
0.8353553391259622 0.4646446610073074 0.0
0.8353553390335396 0.5353553390851152 0.0
0.7646446609148848 0.8353553390335396 0.0
0.8999999999995836 1.0 0.0
0.7999999999999998 1.0 0.0
0.7000000000006934 1.0 0.0
0.6000000000013869 1.0 0.0
0.5000000000020587 1.0 0.0
0.4000000000016644 1.0 0.0
0.3000000000012483 1.0 0.0
0.2000000000008322 1.0 0.0
0.100000000000416 1.0 0.0
0.8353553390851153 0.7646446609664604 0.0
0.8353553390335396 0.8353553390851153 0.0
0.0 0.8999999999995836 0.0
0.0 0.7999999999999998 0.0
0.0 0.7000000000006934 0.0
0.0 0.6000000000013869 0.0
0.0 0.5000000000020587 0.0
0.0 0.4000000000016644 0.0
0.0 0.3000000000012483 0.0
0.0 0.2000000000008322 0.0
0.0 0.100000000000416 0.0
0.2353553389872769 0.8353553391313779 0.0
0.5353553390851152 0.7646446609664604 0.0
0.7646446609664604 0.7646446609148848 0.0
0.3433898395275172 0.3506711751366992 0.0
0.6555223459501304 0.3454869675941158 0.0
0.345221666793714 0.6526563204031345 0.0
0.6500000000000001 0.6500000000000001 0.0
0.3376521968691558 0.1382043895083632 0.0
0.1382043895133763 0.3376521967853719 0.0
0.662347803202637 0.1382043895520366 0.0
0.1382043895520382 0.6376521967973626 0.0
0.3623478031405708 0.861795610525198 0.0
0.8617956104989657 0.362347803199541 0.0
0.6376521968143625 0.8617956104085769 0.0
0.8617956104085793 0.6623478031856377 0.0
0.4577442078074788 0.351070261471894 0.0
0.35 0.4583333333333333 0.0
0.6459020038819421 0.4617868175191547 0.0
0.4583333333333332 0.65 0.0
0.5530890607669136 0.3613201225761349 0.0
0.3273703710454821 0.5577318018698613 0.0
0.6312499999999998 0.5541666666666667 0.0
0.5541666666666664 0.6687499999999998 0.0
0.2439339827500904 0.3534009741251356 0.0
0.3534009741333171 0.2439339827555447 0.0
0.645542633255165 0.2494789938936431 0.0
0.7540219891571036 0.3491277921959138 0.0
0.249952272779098 0.6530833888937803 0.0
0.3484148065846917 0.7545879643268294 0.0
0.6531222076166924 0.7497400369911574 0.0
0.7505210060732426 0.645542633241858 0.0
0.4039637890308081 0.5862884104434813 0.0
0.412084139813457 0.4119563048845528 0.0
0.5880044795246634 0.2926772259834077 0.0
0.7067067285638935 0.5871080864771689 0.0
0.4090296395354618 0.7151635620813825 0.0
0.710197217617496 0.4092669477118412 0.0
0.5705712315775688 0.6017363862836691 0.0
0.4129062502019396 0.2900031303949859 0.0
0.2875759077313267 0.4120913242586335 0.0
0.2857822245280523 0.286403119234693 0.0
0.7121827393464313 0.2851331787597786 0.0
0.7150652678408427 0.7134888166540321 0.0
0.2854198242405634 0.7144204535284502 0.0
0.596355661119427 0.4317463272007821 0.0
0.5195729035608143 0.3137550414159756 0.0
0.6814429780261859 0.5177727375312514 0.0
0.3826688547938011 0.5174013060277558 0.0
0.2742095802077177 0.5888719740076885 0.0
0.5881583496321303 0.7258694804636643 0.0
0.512916648925923 0.6130876559396792 0.0
0.4956876225771484 0.3916916101055488 0.0
0.6091203914685013 0.4955611555134115 0.0
0.3081086880202347 0.4951904105963052 0.0
0.4999999999999998 0.6913194444444444 0.0
0.05985636373714733 0.4420530910850028 0.0
0.9358864235191767 0.1421319380791616 0.0
0.2579469087763238 0.940143636305655 0.0
0.2572591731173738 0.07045208466228416 0.0
0.06411357656219142 0.1421319379513652 0.0
0.5579469089030646 0.05985636373221363 0.0
0.1421319380781085 0.06411357648234975 0.0
0.07045208466695235 0.2572591730084375 0.0
0.9295479153439864 0.4427408269776643 0.0
0.05985636373118473 0.7420530910991101 0.0
0.857868062047356 0.06411357656456783 0.0
0.9401436362836448 0.2579469088865591 0.0
0.4420530912261119 0.05985636371218914 0.0
0.1421319379601523 0.9358864234555444 0.0
0.07045208468232296 0.5572591730179106 0.0
0.06411357648701377 0.8578680619420427 0.0
0.7427408269774269 0.07045208468143335 0.0
0.9401436362796813 0.5579469088793961 0.0
0.7420530911272205 0.9401436362825517 0.0
0.9358864234788886 0.8578680620215167 0.0
0.557259173049598 0.9295479153066358 0.0
0.8578680619732905 0.9358864235092152 0.0
0.9295479153065642 0.7427408269514637 0.0
0.4427408269129883 0.9295479153609203 0.0
0.3143918185721838 0.19209726506541 0.0
0.1920972650952285 0.3143918185536934 0.0
0.685543141712359 0.1913525648670957 0.0
0.1935957104113677 0.6144796997410339 0.0
0.809504244004653 0.3856396610029235 0.0
0.3856396609623359 0.8095042440251847 0.0
0.6144796997484514 0.8064042895564912 0.0
0.8086474350951405 0.6855431417113358 0.0
0.1892629235394513 0.3860472153512443 0.0
0.3860472153840332 0.1892629235625572 0.0
0.6139842252634227 0.1894054608058127 0.0
0.1892545645570567 0.6860837355980296 0.0
0.8107370764580965 0.3139527846426451 0.0
0.3139162643942123 0.8107454354581183 0.0
0.6860472153811453 0.8107370764108126 0.0
0.8105945391657486 0.6139842252475645 0.0
0.4611414873717721 0.5920261295844056 0.0
0.64588989174686 0.4045281252147507 0.0
0.4077563014273697 0.4649729498043385 0.0
0.1352479275248563 0.4080729418485258 0.0
0.5919270581242425 0.1352479275322719 0.0
0.1352479275322713 0.7080729418757574 0.0
0.8647520724968161 0.2919270581077186 0.0
0.4080729420117861 0.1352479275090695 0.0
0.291927057990262 0.8647520725184488 0.0
0.708072941916764 0.8647520724650545 0.0
0.8647520724650537 0.5919270580832346 0.0
0.4023937232125269 0.3536208203306642 0.0
0.3541738588628671 0.4031000864928675 0.0
0.4048342686835711 0.6447434006119712 0.0
0.71316561210788 0.4653396854661837 0.0
0.2874850431956504 0.1351923300651653 0.0
0.1351923301412642 0.287485043121117 0.0
0.4125149568291094 0.8648076699653156 0.0
0.8648076698863019 0.4125149568736285 0.0
0.7125149568579259 0.1351923301736325 0.0
0.1351923301736628 0.5874850431419016 0.0
0.5874850431667454 0.8648076697977991 0.0
0.8648076697977938 0.7125149568332956 0.0
0.4669565156295485 0.2870570218847242 0.0
0.590687671546755 0.2407081407199352 0.0
0.7592918592591411 0.5906876715490426 0.0
0.628314831649785 0.604448761006592 0.0
0.2943959469377353 0.644686885458281 0.0
0.6435962868630796 0.7139205107269279 0.0
0.3541603945295475 0.6083266947287502 0.0
0.6381293107031111 0.2969749241621514 0.0
0.7033184070609535 0.6390130951465713 0.0
0.2365527442584948 0.4117538692896706 0.0
0.7538888166046027 0.2890016099317594 0.0
0.7108528717570168 0.7535478998948462 0.0
0.412428250006682 0.2451687953606375 0.0
0.3646049217394279 0.291369123885017 0.0
0.2997666023716281 0.3650313382879617 0.0
0.703282664384316 0.3560855151264761 0.0
0.358138582971924 0.7055356210530691 0.0
0.9402343666375695 0.6245829212181908 0.0
0.6754170787829508 0.9402343666380462 0.0
0.3245829211491601 0.940234366681378 0.0
0.3754170788557261 0.05976563334184509 0.0
0.6245829212382927 0.05976563334993901 0.0
0.05976563334976909 0.6754170787621089 0.0
0.9402343666753659 0.3245829212273756 0.0
0.05976563333581809 0.3754170787494793 0.0
0.6039102987483714 0.3686712308599859 0.0
0.6012930499303716 0.6517346089211749 0.0
0.2864297804870796 0.2405172437802475 0.0
0.4136086917315461 0.7616115504825639 0.0
0.2404795313617054 0.2864674927196282 0.0
0.758353287519132 0.4143267069527965 0.0
0.2830927819934522 0.761721308423855 0.0
0.2383775627313655 0.7168147508404688 0.0
0.7194341630926276 0.2412202997664903 0.0
0.7588080497214451 0.7196207455854151 0.0
0.5781661925444088 0.5462409467938331 0.0
0.5425156010469789 0.4175588442268487 0.0
0.2838157140155749 0.5421456515675847 0.0
0.5416674579335911 0.7178559517551015 0.0
0.4572520847679629 0.4146290290264605 0.0
0.4514650015977484 0.7124530617828471 0.0
0.2825175937747805 0.4632535898271452 0.0
0.419560766274629 0.545841732107458 0.0
0.5417004983287753 0.2884467063260733 0.0
0.7105882437563859 0.5409816789747722 0.0
[...]
<PointData Scalars="solution">
<DataArray type="Float64" Name="Real part" format="ascii">
0.2025698730825594
0.47910527787953033
0.5596521074465005
0.3013358621119088
0.32136754823507196
0.2720503739924643
0.287520782310187
0.3442752854869882
0.43661381222113915
0.37945385928132286
0.4001352180516573
0.4650480136239243
0.49228515961560204
0.46258875831304386
0.5038392948670941
0.5478497494574576
0.6531895737222368
0.5701693753588457
0.5901601441862133
0.6754263309987194
0.7723537610952439
0.7010659539384233
0.7419630993213808
0.8087279533360858
0.7899030570601165
0.7763260567281
0.8376757398977851
0.8703567059313366
0.9186177508630303
0.8782256100834345
0.8359164673613076
0.8658374038181171
1.033510063873539
1.0150730514671886
1.0060291705219262
0.9894877564518736
1.0245167385015859
1.0664867773930922
1.0874600564549193
1.0335778621033447
0.2904313178642849
0.2704506857191567
0.3167350387217759
0.34138373357388807
0.4008296704483117
0.37829992078987257
0.4380089161341495
0.46124155492705476
0.46836849871620256
0.47566074973172495
0.5349130987337963
0.2087064189592398
0.23481146133050038
0.275308887471071
0.3370697362297348
0.3978302305222397
0.44258403744775815
0.48457954991639385
0.5187635925429256
0.49972669202998105
0.6063911301066595
0.5659062020122855
0.6362669992958847
0.6828178366539213
0.7244276102452221
0.7009332039259051
0.7783747232453591
0.8009633533407631
0.7650015869026732
0.7928220714509291
0.5073484973211437
0.5517799183282653
0.5701001897398337
0.5909215594380159
0.6260018187005804
0.6263671855146107
0.6271704350415945
0.6362573030236272
0.592612245149355
0.8299918483795863
0.9064696386553011
0.8433609972144446
0.8433647728372459
0.8999788683515674
1.031287555644966
1.0008192662173607
0.983679143398155
1.0145255908610913
1.0445014622752082
0.5890777743163244
0.6191845054436895
0.5936147690659395
0.5483195015827267
0.5153868250215213
0.45037772365642104
0.3946824211722553
0.3531071935655568
0.3163323522653973
1.054236371038896
1.0217592602564038
0.30787521419348113
0.315715073730589
0.30653080884138956
0.28850694536265065
0.27492421142413204
0.2530386589974859
0.22941108971084231
0.21516718820166847
0.20423079188040782
0.5269895769686436
0.8636383832745336
1.0853485036017252
0.3789161778401226
0.5907337057711082
0.45034973787318194
0.6536128913316495
0.3293568605552084
0.2683934889518884
0.5501738879862622
0.3400230866493926
0.4855121409144453
0.6692128396046438
0.6568906860803624
0.7272459743297474
0.49489299384085733
0.4371042888241535
0.662283442311968
0.5704619315336444
0.5599619086015789
0.43787452085830164
0.6657572851626328
0.6342677913904072
0.32332651750107244
0.3737340677857769
0.5856430213168339
0.6779623553963552
0.4015740364431818
0.4909450708169943
0.7034685814662834
0.7414334216326507
0.5168850978454075
0.48639664603857996
0.5619045180107383
0.7258369034313886
0.550955633073762
0.6894599322086433
0.641870326526931
0.44391638645225207
0.37392129737250923
0.33221448805087167
0.6577834548944648
0.7620504503065172
0.445431581497071
0.6309269233672344
0.5449779773713535
0.7267820858077574
0.4991780908503861
0.41280759610661794
0.6861115751859735
0.6262898684638826
0.5672087755706893
0.6747740756724946
0.4261243181097076
0.644228839762277
0.2698896387998542
0.5553867932359662
0.3874574625285394
0.2628842689544151
0.2114398465357926
0.44132955636182647
0.21976654150988198
0.22963709769336768
0.6536711802686587
0.32328471309157986
0.5409224923941238
0.5905663849950333
0.3774126677941683
0.34098755858730545
0.2968221521135512
0.32522338492278435
0.5435786910468663
0.6590919047512349
0.6430259080608485
0.6504296338200518
0.5730324974892046
0.6440147609106366
0.6855284684465968
0.5128340379347829
0.3357280778630558
0.29197444810574236
0.6294325843427594
0.3745627043123871
0.7350725720562854
0.5481992535062161
0.7024141033710376
0.7993437726868777
0.3154830908954829
0.40452240218162094
0.5671074284486375
0.3924385276828905
0.7070107801671999
0.4784177786668774
0.7574112049723472
0.7824910518950502
0.6020915617216158
0.6180449343422554
0.5307069997371586
0.29733289043330374
0.5251766467992706
0.36842716436945955
0.6849784694479258
0.4042119723239346
0.45006184954750195
0.7412440164752218
0.7597693117262859
0.4361159845209478
0.411107622226716
0.5083095764786564
0.7850495738049857
0.3002885529395635
0.2598562194691992
0.5526443971931575
0.7254367584867589
0.6112679438259636
0.3387287747366911
0.6605083581741795
0.7776994522128108
0.5246163392554747
0.5861323422978151
0.8070929847439552
0.6464597622779816
0.41732226131155525
0.6757127899040822
0.454537521902496
0.5747801436029218
0.6955869047929845
0.35923705049139665
0.7167884951014426
0.8108059130588009
0.457933973439713
0.38708827567045667
0.3541277079684461
0.633955374847565
0.4790253260854564
0.6438402273917541
0.6004008911923707
0.41480267067431714
0.32624082613837285
0.464988739281264
0.30837434597820074
0.5895161496760948
0.2501787731632945
0.5760589480952423
0.6342142944231681
0.33276649961506033
0.6014710007558358
0.3148764216676749
0.7745444991585952
0.4761687530081837
0.4424974865589783
0.7061409218795679
0.8508125604357398
0.6914618451773932
0.6279810735961866
0.4276112074189517
0.7009806011339751
0.5598864396573344
0.6222840185698063
0.4092290028995252
0.5675241701590431
0.5705605945952964
0.7854287413528198
0.4933751548565401
0.6870511762707623
0.4035721198849755
0.7361011615451422
0.6675273020099279
0.6681973911450808
0.4398044087465889
0.5507846283227656
0.6997461417056244
0.5659092050398036
0.679685228654792
0.6159663222214246
0.6108484006257234
0.5406961749524865
0.6753949971738613
0.44635006120854404
0.6251706990541855
0.4272023724046885
0.3495402794862745
0.6603096012535733
0.24400916400549105
0.6269114755969838
0.2980362873885843
0.3089887821735643
0.5131014574380495
0.46525307930664905
0.5974627024326197
0.6737909437903293
0.6267602979161443
0.4944588313102779
0.5472678885285016
0.5439682201662398
0.46339018521472813
0.6453423824907617
0.4620888837393783
0.4022819259769268
0.4965560055593451
0.5965444749873428
0.31156362504993007
0.2037680469459738
0.5072087953651396
0.7973714702826086
0.41643182169204257
0.38388099770209255
0.5053548901946778
0.6511547577290968
0.6915566988564376
0.5261082067608605
0.3295760546192516
0.35158388716433103
0.7228749171366451
0.31586372672247737
0.2759644478754673
0.2375359161745304
0.5022219188784984
0.7013319423563538
0.4012561080449744
0.38188707128513194
0.6703994986783424
0.4290932760910553
0.683722192262894
0.25023867116374615
0.24591191281143693
0.7908632960364332
0.46184545173951697
0.7921710561999724
0.33460574972389484
0.668545060425593
0.38531270462804823
0.7985611702999659
0.8140432374688407
0.6261303171541637
0.6685561422075108
0.8333357588132111
0.8058217136179489
0.6049934797941987
0.7281304185665038
0.4195661026202979
0.654673791482041
0.3321343847916721
0.5739095623459483
0.4134635276698022
0.7565003182956885
0.45769741346387827
0.4798754593317352
0.8440946783574803
0.8431572347834316
0.5719769379040497
0.737969388712789
0.5679765964450166
0.4621740098676092
0.4149443729185829
0.4120048943299761
0.34801845156182365
0.6525873995373548
0.5127500197257002
0.5955686283015267
0.3059198413532616
0.36481459961387097
0.5872743474241523
0.3845305845511368
0.6966512584149079
0.7071085003403168
0.7638755390331957
0.49989168206855844
0.5890751965165963
0.32135778197245785
0.28723908231307765
0.7052440091825894
0.38217274725674555
0.6266709396950083
0.8204816846589794
0.7441461213703479
0.88496265603823
0.5716223896422065
0.820258158951324
0.43174927506638955
0.6478112590485826
0.7445312970012069
0.8753083391396258
0.4194839261339233
0.48884146429225467
0.32829115103558176
0.48065463235958816
0.6035032373081137
0.5633154870415468
0.47027075603043933
0.2951190925543705
0.34395378961254097
0.5724366422379267
0.43261980383307475
0.34657141128440516
0.2426198368382192
0.21985396061770726
0.22383813802786517
0.580094597311396
0.6985448855488934
0.6880972845958266
0.7035758171472083
0.6128909446617685
0.3793784213451061
0.5657182775013067
0.6977335264219062
0.39783109338762646
0.6928259691712241
0.713467607086633
0.6476050404558502
0.423646690712274
0.7350720332792864
0.7187268882638707
0.4577014880248605
0.6633786940995839
0.3912269016482921
0.5584212280060802
0.681895234513565
0.780891078733222
0.6252755878514855
0.652907157162002
0.3466268468357645
0.3084139816557266
0.5242534478262638
0.5965595443309115
0.8547713868927188
0.6618944781330952
0.6743051855596104
0.5430730253397087
0.7243157918597362
0.584314185798612
0.637168227294049
0.4358385800906075
0.7167439138958603
0.6013913841247278
0.3514787900993522
0.4658324061039144
0.6349162528545975
0.6005238216802977
0.8521454354181575
0.40624713344308094
0.4794730333678519
0.7613629174175259
0.8532495176068944
0.4333004591469543
0.4910053800761603
0.32814572202895864
0.40970470587714775
0.5772395484812305
0.773094138769984
0.5791734235970684
0.43101672668428564
0.6497352101109923
0.6989143572693384
0.7525578720852886
0.6001052867349889
0.5902295669161451
0.6157817073017205
0.6325281202248425
0.8851148392818544
0.28847768618565306
0.3520279127686491
0.5723971346917084
0.36443244743805586
0.6910866109525267
0.49535140371149644
0.6941953356339073
0.7557624650435096
0.5234151457378967
0.292130727822903
0.5411806731010682
0.36469030653858503
0.37843583158690475
0.68017247710832
0.46518529814612336
0.7494337746489363
0.7139509152913103
0.6621871871114838
0.5698849414717491
0.6399233640356966
0.8340765540606577
0.4254508530016421
0.6397240398319792
0.3321086184435491
0.3048723411600053
0.7131379396711667
0.8837261305459859
0.6279333807559573
0.6753676013519601
0.6638894810898978
0.6586745753300854
0.40179948819486155
0.3860771896946834
0.45460914129046487
0.6618723695277577
0.6942660884698815
0.639253096727231
0.46838853997291835
0.46588624730354183
0.3269779870776879
0.551720364007114
0.40475123432620186
0.7518507583479441
0.8425575948638968
0.8468082479682737
0.6360640353832112
0.7205404169063375
0.41635718793127174
0.2670203373556237
0.5045508431287966
0.3326277598644134
0.635722570389463
0.6962449506576681
0.6520301153497415
0.3461173593355981
0.4432304309910843
0.3871972460892279
0.5216712858731876
0.6248922570465245
0.9104579821442645
0.4775237536908881
0.8039837233540753
0.9309453868878659
0.4689537578271925
0.5104139109529039
0.4411520737647579
0.388601575441635
0.42313015030936074
0.7145104786557943
0.6957990998320226
0.6433848743568623
0.4881599339006467
0.3462278437338116
0.28250053037419387
0.4555751956593688
0.4793513924257764
0.42811644026054146
0.6708260851947005
0.4815631046289097
0.6886229740607225
0.5402296955986606
0.37474809167190165
0.2770439607881722
0.32499164924676943
0.7202397990428949
0.6075524361031658
0.35694319800715807
0.536200023399141
0.6844654538162398
0.7803367415711878
0.6163018673059324
0.9083209310676365
</DataArray>
<DataArray type="Float64" Name="Imag part" format="ascii">
0.0
0.0
0.0
0.0
0.0
0.0
0.0
0.0
0.0
0.0
0.0
0.0
0.0
0.0
0.0
0.0
0.0
0.0
0.0
0.0
0.0
0.0
0.0
0.0
0.0
0.0
0.0
0.0
0.0
0.0
0.0
0.0
0.0
0.0
0.0
0.0
0.0
0.0
0.0
0.0
0.0
0.0
0.0
0.0
0.0
0.0
0.0
0.0
0.0
0.0
0.0
0.0
0.0
0.0
0.0
0.0
0.0
0.0
0.0
0.0
0.0
0.0
0.0
0.0
0.0
0.0
0.0
0.0
0.0
0.0
0.0
0.0
0.0
0.0
0.0
0.0
0.0
0.0
0.0
0.0
0.0
0.0
0.0
0.0
0.0
0.0
0.0
0.0
0.0
0.0
0.0
0.0
0.0
0.0
0.0
0.0
0.0
0.0
0.0
0.0
0.0
0.0
0.0
0.0
0.0
0.0
0.0
0.0
0.0
0.0
0.0
0.0
0.0
0.0
0.0
0.0
0.0
0.0
0.0
0.0
0.0
0.0
0.0
0.0
0.0
0.0
0.0
0.0
0.0
0.0
0.0
0.0
0.0
0.0
0.0
0.0
0.0
0.0
0.0
0.0
0.0
0.0
0.0
0.0
0.0
0.0
0.0
0.0
0.0
0.0
0.0
0.0
0.0
0.0
0.0
0.0
0.0
0.0
0.0
0.0
0.0
0.0
0.0
0.0
0.0
0.0
0.0
0.0
0.0
0.0
0.0
0.0
0.0
0.0
0.0
0.0
0.0
0.0
0.0
0.0
0.0
0.0
0.0
0.0
0.0
0.0
0.0
0.0
0.0
0.0
0.0
0.0
0.0
0.0
0.0
0.0
0.0
0.0
0.0
0.0
0.0
0.0
0.0
0.0
0.0
0.0
0.0
0.0
0.0
0.0
0.0
0.0
0.0
0.0
0.0
0.0
0.0
0.0
0.0
0.0
0.0
0.0
0.0
0.0
0.0
0.0
0.0
0.0
0.0
0.0
0.0
0.0
0.0
0.0
0.0
0.0
0.0
0.0
0.0
0.0
0.0
0.0
0.0
0.0
0.0
0.0
0.0
0.0
0.0
0.0
0.0
0.0
0.0
0.0
0.0
0.0
0.0
0.0
0.0
0.0
0.0
0.0
0.0
0.0
0.0
0.0
0.0
0.0
0.0
0.0
0.0
0.0
0.0
0.0
0.0
0.0
0.0
0.0
0.0
0.0
0.0
0.0
0.0
0.0
0.0
0.0
0.0
0.0
0.0
0.0
0.0
0.0
0.0
0.0
0.0
0.0
0.0
0.0
0.0
0.0
0.0
0.0
0.0
0.0
0.0
0.0
0.0
0.0
0.0
0.0
0.0
0.0
0.0
0.0
0.0
0.0
0.0
0.0
0.0
0.0
0.0
0.0
0.0
0.0
0.0
0.0
0.0
0.0
0.0
0.0
0.0
0.0
0.0
0.0
0.0
0.0
0.0
0.0
0.0
0.0
0.0
0.0
0.0
0.0
0.0
0.0
0.0
0.0
0.0
0.0
0.0
0.0
0.0
0.0
0.0
0.0
0.0
0.0
0.0
0.0
0.0
0.0
0.0
0.0
0.0
0.0
0.0
0.0
0.0
0.0
0.0
0.0
0.0
0.0
0.0
0.0
0.0
0.0
0.0
0.0
0.0
0.0
0.0
0.0
0.0
0.0
0.0
0.0
0.0
0.0
0.0
0.0
0.0
0.0
0.0
0.0
0.0
0.0
0.0
0.0
0.0
0.0
0.0
0.0
0.0
0.0
0.0
0.0
0.0
0.0
0.0
0.0
0.0
0.0
0.0
0.0
0.0
0.0
0.0
0.0
0.0
0.0
0.0
0.0
0.0
0.0
0.0
0.0
0.0
0.0
0.0
0.0
0.0
0.0
0.0
0.0
0.0
0.0
0.0
0.0
0.0
0.0
0.0
0.0
0.0
0.0
0.0
0.0
0.0
0.0
0.0
0.0
0.0
0.0
0.0
0.0
0.0
0.0
0.0
0.0
0.0
0.0
0.0
0.0
0.0
0.0
0.0
0.0
0.0
0.0
0.0
0.0
0.0
0.0
0.0
0.0
0.0
0.0
0.0
0.0
0.0
0.0
0.0
0.0
0.0
0.0
0.0
0.0
0.0
0.0
0.0
0.0
0.0
0.0
0.0
0.0
0.0
0.0
0.0
0.0
0.0
0.0
0.0
0.0
0.0
0.0
0.0
0.0
0.0
0.0
0.0
0.0
0.0
0.0
0.0
0.0
0.0
0.0
0.0
0.0
0.0
0.0
0.0
0.0
0.0
0.0
0.0
0.0
0.0
0.0
0.0
0.0
0.0
0.0
0.0
0.0
0.0
0.0
0.0
0.0
0.0
0.0
0.0
0.0
0.0
0.0
0.0
0.0
0.0
0.0
0.0
0.0
0.0
0.0
0.0
0.0
0.0
0.0
0.0
0.0
0.0
</DataArray>
</PointData>
</Piece>
</UnstructuredGrid>
</VTKFile>
