<VTKFile type="UnstructuredGrid" version="1.0" byte_order="LittleEndian" header_type="UInt64">
<UnstructuredGrid>
<Piece NumberOfPoints="561" NumberOfCells="1026">
<Points>
<DataArray NumberOfComponents="3" type="Float64">
0.0 0.0 0.0
1.0 0.0 0.0
1.0 1.0 0.0
0.0 1.0 0.0
0.2 0.25 0.0
0.15 0.2 0.0
0.2 0.15 0.0
0.25 0.2 0.0
0.2 0.55 0.0
0.15 0.5 0.0
0.2 0.45 0.0
0.25 0.5 0.0
0.2 0.8500000000000001 0.0
0.15 0.8 0.0
0.2 0.75 0.0
0.25 0.8 0.0
0.5 0.25 0.0
0.45 0.2 0.0
0.5 0.15 0.0
0.55 0.2 0.0
0.5 0.55 0.0
0.45 0.5 0.0
0.5 0.45 0.0
0.55 0.5 0.0
0.5 0.8500000000000001 0.0
0.45 0.8 0.0
0.5 0.75 0.0
0.55 0.8 0.0
0.8 0.25 0.0
0.75 0.2 0.0
0.8 0.15 0.0
0.8500000000000001 0.2 0.0
0.8 0.55 0.0
0.75 0.5 0.0
0.8 0.45 0.0
0.8500000000000001 0.5 0.0
0.8 0.8500000000000001 0.0
0.75 0.8 0.0
0.8 0.75 0.0
0.8500000000000001 0.8 0.0
0.1646446608727939 0.2353553389914487 0.0
0.1646446610085513 0.1646446608727939 0.0
0.2353553391272061 0.1646446610085513 0.0
0.2353553389914487 0.2353553391272061 0.0
0.1646446608926911 0.5353553390113459 0.0
0.1646446610424293 0.464644660838916 0.0
0.2353553391217903 0.4646446610031355 0.0
0.2353553389872769 0.5353553391313779 0.0
0.1646446608926911 0.835355339011346 0.0
0.1646446610127232 0.7646446608686222 0.0
0.2353553391073089 0.7646446609886541 0.0
0.09999999999981467 0.0 0.0
0.1999999999995579 0.0 0.0
0.2999999999992664 0.0 0.0
0.3999999999989749 0.0 0.0
0.4999999999986943 0.0 0.0
0.5999999999989468 0.0 0.0
0.69999999999921 0.0 0.0
0.7999999999994734 0.0 0.0
0.8999999999997368 0.0 0.0
0.464644660838916 0.2353553389575707 0.0
0.4646446610031355 0.1646446608782098 0.0
0.5353553391313779 0.1646446610127232 0.0
0.5353553390113459 0.2353553391073089 0.0
0.4646446609191431 0.535355339037798 0.0
0.4646446610370135 0.4646446608443318 0.0
0.5353553391259621 0.4646446610073074 0.0
0.5353553390335396 0.5353553390851152 0.0
0.4646446609191431 0.835355339037798 0.0
0.4646446610073074 0.7646446608740379 0.0
1.0 0.09999999999981467 0.0
1.0 0.1999999999995579 0.0
1.0 0.2999999999992664 0.0
1.0 0.3999999999989749 0.0
1.0 0.4999999999986943 0.0
1.0 0.5999999999989468 0.0
1.0 0.69999999999921 0.0
1.0 0.7999999999994734 0.0
1.0 0.8999999999997368 0.0
0.5353553390335396 0.8353553390851153 0.0
0.7646446608686222 0.2353553389872769 0.0
0.7646446609886541 0.1646446608926911 0.0
0.8353553391313779 0.1646446610127232 0.0
0.835355339011346 0.2353553391073089 0.0
0.7646446609148848 0.5353553390335396 0.0
0.7646446609622021 0.4646446609191431 0.0
0.8353553391259622 0.4646446610073074 0.0
0.8353553390335396 0.5353553390851152 0.0
0.7646446609148848 0.8353553390335396 0.0
0.8999999999995836 1.0 0.0
0.7999999999999998 1.0 0.0
0.7000000000006934 1.0 0.0
0.6000000000013869 1.0 0.0
0.5000000000020587 1.0 0.0
0.4000000000016644 1.0 0.0
0.3000000000012483 1.0 0.0
0.2000000000008322 1.0 0.0
0.100000000000416 1.0 0.0
0.8353553390851153 0.7646446609664604 0.0
0.8353553390335396 0.8353553390851153 0.0
0.0 0.8999999999995836 0.0
0.0 0.7999999999999998 0.0
0.0 0.7000000000006934 0.0
0.0 0.6000000000013869 0.0
0.0 0.5000000000020587 0.0
0.0 0.4000000000016644 0.0
0.0 0.3000000000012483 0.0
0.0 0.2000000000008322 0.0
0.0 0.100000000000416 0.0
0.2353553389872769 0.8353553391313779 0.0
0.5353553390851152 0.7646446609664604 0.0
0.7646446609664604 0.7646446609148848 0.0
0.3433898395275172 0.3506711751366992 0.0
0.6555223459501304 0.3454869675941158 0.0
0.345221666793714 0.6526563204031345 0.0
0.6500000000000001 0.6500000000000001 0.0
0.3376521968691558 0.1382043895083632 0.0
0.1382043895133763 0.3376521967853719 0.0
0.662347803202637 0.1382043895520366 0.0
0.1382043895520382 0.6376521967973626 0.0
0.3623478031405708 0.861795610525198 0.0
0.8617956104989657 0.362347803199541 0.0
0.6376521968143625 0.8617956104085769 0.0
0.8617956104085793 0.6623478031856377 0.0
0.4577442078074788 0.351070261471894 0.0
0.35 0.4583333333333333 0.0
0.6459020038819421 0.4617868175191547 0.0
0.4583333333333332 0.65 0.0
0.5530890607669136 0.3613201225761349 0.0
0.3273703710454821 0.5577318018698613 0.0
0.6312499999999998 0.5541666666666667 0.0
0.5541666666666664 0.6687499999999998 0.0
0.2439339827500904 0.3534009741251356 0.0
0.3534009741333171 0.2439339827555447 0.0
0.645542633255165 0.2494789938936431 0.0
0.7540219891571036 0.3491277921959138 0.0
0.249952272779098 0.6530833888937803 0.0
0.3484148065846917 0.7545879643268294 0.0
0.6531222076166924 0.7497400369911574 0.0
0.7505210060732426 0.645542633241858 0.0
0.4039637890308081 0.5862884104434813 0.0
0.412084139813457 0.4119563048845528 0.0
0.5880044795246634 0.2926772259834077 0.0
0.7067067285638935 0.5871080864771689 0.0
0.4090296395354618 0.7151635620813825 0.0
0.710197217617496 0.4092669477118412 0.0
0.5705712315775688 0.6017363862836691 0.0
0.4129062502019396 0.2900031303949859 0.0
0.2875759077313267 0.4120913242586335 0.0
0.2857822245280523 0.286403119234693 0.0
0.7121827393464313 0.2851331787597786 0.0
0.7150652678408427 0.7134888166540321 0.0
0.2854198242405634 0.7144204535284502 0.0
0.596355661119427 0.4317463272007821 0.0
0.5195729035608143 0.3137550414159756 0.0
0.6814429780261859 0.5177727375312514 0.0
0.3826688547938011 0.5174013060277558 0.0
0.2742095802077177 0.5888719740076885 0.0
0.5881583496321303 0.7258694804636643 0.0
0.512916648925923 0.6130876559396792 0.0
0.4956876225771484 0.3916916101055488 0.0
0.6091203914685013 0.4955611555134115 0.0
0.3081086880202347 0.4951904105963052 0.0
0.4999999999999998 0.6913194444444444 0.0
0.05985636373714733 0.4420530910850028 0.0
0.9358864235191767 0.1421319380791616 0.0
0.2579469087763238 0.940143636305655 0.0
0.2572591731173738 0.07045208466228416 0.0
0.06411357656219142 0.1421319379513652 0.0
0.5579469089030646 0.05985636373221363 0.0
0.1421319380781085 0.06411357648234975 0.0
0.07045208466695235 0.2572591730084375 0.0
0.9295479153439864 0.4427408269776643 0.0
0.05985636373118473 0.7420530910991101 0.0
0.857868062047356 0.06411357656456783 0.0
0.9401436362836448 0.2579469088865591 0.0
0.4420530912261119 0.05985636371218914 0.0
0.1421319379601523 0.9358864234555444 0.0
0.07045208468232296 0.5572591730179106 0.0
0.06411357648701377 0.8578680619420427 0.0
0.7427408269774269 0.07045208468143335 0.0
0.9401436362796813 0.5579469088793961 0.0
0.7420530911272205 0.9401436362825517 0.0
0.9358864234788886 0.8578680620215167 0.0
0.557259173049598 0.9295479153066358 0.0
0.8578680619732905 0.9358864235092152 0.0
0.9295479153065642 0.7427408269514637 0.0
0.4427408269129883 0.9295479153609203 0.0
0.3143918185721838 0.19209726506541 0.0
0.1920972650952285 0.3143918185536934 0.0
0.685543141712359 0.1913525648670957 0.0
0.1935957104113677 0.6144796997410339 0.0
0.809504244004653 0.3856396610029235 0.0
0.3856396609623359 0.8095042440251847 0.0
0.6144796997484514 0.8064042895564912 0.0
0.8086474350951405 0.6855431417113358 0.0
0.1892629235394513 0.3860472153512443 0.0
0.3860472153840332 0.1892629235625572 0.0
0.6139842252634227 0.1894054608058127 0.0
0.1892545645570567 0.6860837355980296 0.0
0.8107370764580965 0.3139527846426451 0.0
0.3139162643942123 0.8107454354581183 0.0
0.6860472153811453 0.8107370764108126 0.0
0.8105945391657486 0.6139842252475645 0.0
0.4611414873717721 0.5920261295844056 0.0
0.64588989174686 0.4045281252147507 0.0
0.4077563014273697 0.4649729498043385 0.0
0.1352479275248563 0.4080729418485258 0.0
0.5919270581242425 0.1352479275322719 0.0
0.1352479275322713 0.7080729418757574 0.0
0.8647520724968161 0.2919270581077186 0.0
0.4080729420117861 0.1352479275090695 0.0
0.291927057990262 0.8647520725184488 0.0
0.708072941916764 0.8647520724650545 0.0
0.8647520724650537 0.5919270580832346 0.0
0.4023937232125269 0.3536208203306642 0.0
0.3541738588628671 0.4031000864928675 0.0
0.4048342686835711 0.6447434006119712 0.0
0.71316561210788 0.4653396854661837 0.0
0.2874850431956504 0.1351923300651653 0.0
0.1351923301412642 0.287485043121117 0.0
0.4125149568291094 0.8648076699653156 0.0
0.8648076698863019 0.4125149568736285 0.0
0.7125149568579259 0.1351923301736325 0.0
0.1351923301736628 0.5874850431419016 0.0
0.5874850431667454 0.8648076697977991 0.0
0.8648076697977938 0.7125149568332956 0.0
0.4669565156295485 0.2870570218847242 0.0
0.590687671546755 0.2407081407199352 0.0
0.7592918592591411 0.5906876715490426 0.0
0.628314831649785 0.604448761006592 0.0
0.2943959469377353 0.644686885458281 0.0
0.6435962868630796 0.7139205107269279 0.0
0.3541603945295475 0.6083266947287502 0.0
0.6381293107031111 0.2969749241621514 0.0
0.7033184070609535 0.6390130951465713 0.0
0.2365527442584948 0.4117538692896706 0.0
0.7538888166046027 0.2890016099317594 0.0
0.7108528717570168 0.7535478998948462 0.0
0.412428250006682 0.2451687953606375 0.0
0.3646049217394279 0.291369123885017 0.0
0.2997666023716281 0.3650313382879617 0.0
0.703282664384316 0.3560855151264761 0.0
0.358138582971924 0.7055356210530691 0.0
0.9402343666375695 0.6245829212181908 0.0
0.6754170787829508 0.9402343666380462 0.0
0.3245829211491601 0.940234366681378 0.0
0.3754170788557261 0.05976563334184509 0.0
0.6245829212382927 0.05976563334993901 0.0
0.05976563334976909 0.6754170787621089 0.0
0.9402343666753659 0.3245829212273756 0.0
0.05976563333581809 0.3754170787494793 0.0
0.6039102987483714 0.3686712308599859 0.0
0.6012930499303716 0.6517346089211749 0.0
0.2864297804870796 0.2405172437802475 0.0
0.4136086917315461 0.7616115504825639 0.0
0.2404795313617054 0.2864674927196282 0.0
0.758353287519132 0.4143267069527965 0.0
0.2830927819934522 0.761721308423855 0.0
0.2383775627313655 0.7168147508404688 0.0
0.7194341630926276 0.2412202997664903 0.0
0.7588080497214451 0.7196207455854151 0.0
0.5781661925444088 0.5462409467938331 0.0
0.5425156010469789 0.4175588442268487 0.0
0.2838157140155749 0.5421456515675847 0.0
0.5416674579335911 0.7178559517551015 0.0
0.4572520847679629 0.4146290290264605 0.0
0.4514650015977484 0.7124530617828471 0.0
0.2825175937747805 0.4632535898271452 0.0
0.419560766274629 0.545841732107458 0.0
0.5417004983287753 0.2884467063260733 0.0
0.7105882437563859 0.5409816789747722 0.0
[...]
<PointData Scalars="solution">
<DataArray type="Float64" Name="Real part" format="ascii">
0.2026009126764697
0.47913822831828085
0.5596807436530309
0.3013706187958222
0.3214020602385978
0.2720830808487842
0.2875539109663078
0.344310312437696
0.43665062605720983
0.3794892758075623
0.4001710421321319
0.4650854319161336
0.49232158876911725
0.46262495659084657
0.5038764430766799
0.5478872321606383
0.6532278416920815
0.5702066422532076
0.5901971776790873
0.6754641038693935
0.7723925304506103
0.7011049465357633
0.7420019790434428
0.8087664221812484
0.7899397265618787
0.7763641646073622
0.8377139380643622
0.8703932880944836
0.9186540949027944
0.8782628409224867
0.8359521883546069
0.8658723233636928
1.0335451653047043
1.015110229738344
1.0060653910727548
0.9895220254968401
1.0245489147295905
1.0665214584102227
1.0874940856867834
1.033609438122384
0.2904648145899949
0.2704832299943293
0.31676919350128246
0.3414188908242899
0.40086571244619257
0.37833520620641176
0.43804571060012387
0.4612789588212306
0.4684046366978485
0.4756973259674706
0.5349506486869721
0.20873785875736237
0.23484396155892717
0.27534280772976216
0.33710506851681293
0.3978663570269715
0.4426202037730418
0.48461519601402553
0.518798326335729
0.4997602478733233
0.6064289992525556
0.5659431641820204
0.636304346481831
0.6828560032314646
0.7244666045388644
0.7009721966086595
0.7784134461602504
0.8010018652286215
0.7650390310663701
0.7928605735411229
0.5073817561900039
0.5518135015679515
0.5701338264037005
0.5909548560902697
0.6260345877113805
0.6263991546844299
0.62720141840855
0.6362873539121552
0.5926413882936036
0.8300281626187282
0.9065067745679368
0.843397637057084
0.8433998155189054
0.9000142876509688
1.0313239082177537
1.000856383000788
0.9837142364465686
1.0145598344045164
1.0445350082165954
0.5891071451830006
0.6192154452617501
0.5936474638247118
0.5483536947703117
0.5154223541103358
0.45041384070056556
0.39471852880698793
0.3531428597082817
0.31636743116637944
1.0542690294673551
1.0217906351510062
0.30791021886550096
0.3157504205662166
0.30656620752270897
0.2885420011689902
0.274958734541504
0.2530723835993216
0.22944383415006078
0.21519908056841391
0.20426207899224574
0.5270265476622867
0.863675825122093
1.0853833760757898
0.3789531971851865
0.590771275156294
0.45038773614385574
0.6536493870197063
0.32939214151757884
0.26842756020582315
0.5502106828674442
0.3400592074428334
0.4855492726235603
0.6692477697471038
0.6569254476969452
0.7272789157177821
0.494931245636774
0.43714220718727476
0.6623212145691154
0.5705003645569298
0.5600002104698455
0.43791250175135704
0.6657947515548097
0.634305446647241
0.32336221622866324
0.37377052312209086
0.5856805749933947
0.6779990634741038
0.4016113577659222
0.4909829743195764
0.7035044112813686
0.7414686010732305
0.5169236184551502
0.48643494481127064
0.5619424909382246
0.7258732674074034
0.5509939491226743
0.6894971999787649
0.6419081531425354
0.44395394321829185
0.3739581211669355
0.33225032185393377
0.6578206822674532
0.7620858158262778
0.44546923557883944
0.6309651101893838
0.5450162754186226
0.7268193936943439
0.4992165733458595
0.4128451455381678
0.686148468096883
0.6263282104934345
0.5672473888180962
0.6748120872516233
0.4261620317527567
0.6442670366819192
0.2699238998277761
0.5554205156187698
0.38749359428317603
0.2629177853989475
0.21147152153780455
0.4413659611130554
0.21979848293368928
0.22966971911158585
0.6537047588310614
0.32332031739732137
0.5409567247947829
0.5906003295038674
0.3774485961335851
0.3410230379344402
0.2968572843612736
0.3252587300029239
0.5436143369005013
0.6591245401249256
0.6430581646533428
0.6504594746235033
0.5730676515631965
0.6440449966713795
0.6855595512278905
0.5128703458513371
0.3357635879073783
0.292009103833096
0.6294697904800615
0.37459943111597616
0.7351084674937934
0.5482370204072761
0.702449868003704
0.7993776885024175
0.3155182954763732
0.40455888151173347
0.5671448522353336
0.3924753611512781
0.7070467248975624
0.47845525530896027
0.757446103542595
0.7825254132127966
0.6021302444311539
0.6180826695238469
0.5307455975869334
0.29736755586022373
0.5252136625859055
0.3684634446526101
0.6850134825127311
0.40424819772096876
0.45009876443289243
0.7412778471769012
0.7598027788444005
0.43615375795540834
0.4111451839309764
0.5083479228517972
0.7850869464380222
0.3003230807313646
0.2598898002753716
0.5526815779715684
0.7254715358979164
0.6113045237595632
0.3387647046886417
0.6605437807643285
0.7777319586778667
0.5246544421344954
0.5861701894562444
0.8071285817363127
0.6464968710125627
0.4173599184816096
0.6757489743004251
0.4545756425698659
0.5748177943308349
0.6956228002063788
0.35927320193353746
0.7168253687400175
0.8108411700211358
0.45797128115602914
0.38712519189774725
0.3541642588405099
0.6339925877863357
0.4790633687813337
0.6438722660427839
0.6004342132222305
0.4148390042471928
0.3262760007858996
0.46502499614345405
0.30840985947228444
0.5895500160364798
0.2502124358096521
0.5760969343304702
0.6342514152147565
0.3328020813327614
0.6015092553081718
0.3149116541557709
0.7745813158164525
0.4762063944414292
0.4425348732165055
0.7061782118512623
0.8508473576039735
0.6914999360240441
0.6280196510218097
0.4276488701906707
0.7010182449688114
0.5599251159411418
0.622322442207578
0.409266270134478
0.5675629453447038
0.5705988204253247
0.7854656206781561
0.49341359567231435
0.687089533383977
0.4036092500951809
0.7361377258155302
0.6675638965776257
0.6682357507466421
0.43984220613967884
0.550822856380977
0.6997831746219443
0.5659470494624013
0.6797212053437941
0.6160044600593699
0.6108857603985812
0.5407345715511926
0.6754326821496982
0.44638811665463596
0.625208647542767
0.427240231797934
0.3495766741379828
0.6603471999848313
0.24404251010746722
0.626945519635995
0.29807085856555876
0.30902432111798855
0.5131376707694256
0.46528968003688054
0.5974970945356954
0.6738228338495695
0.626797785874686
0.49449714665124567
0.5473062773511778
0.5440067522697712
0.4634283278128172
0.6453794953463885
0.4621268189858034
0.4023193553451653
0.4965942320864725
0.5965737646809047
0.31159869045544164
0.2037994089492132
0.507242241365318
0.7974086946091041
0.4164692586139102
0.3839181251450152
0.5053926857230623
0.6511927917577481
0.691593615715746
0.5261463344870739
0.32961196904834084
0.351620153160665
0.7229105793986499
0.31589866689627993
0.2759979837626469
0.23756811959083607
0.5022587998795907
0.7013665853831387
0.40129209105360786
0.3819231318453587
0.6704344669176908
0.4291297134733331
0.6837566746446888
0.2502715163026142
0.24594436591904337
0.7908974896122507
0.46188207744591125
0.7922046727725522
0.3346412070806602
0.6685810321375278
0.3853485592265038
0.7985936317252703
0.8140740369871994
0.6261670752871171
0.66859211777276
0.8333673960374932
0.8058528766454642
0.6050309253441148
0.7281657942240652
0.4196036142385938
0.6547108164406127
0.33216960687643704
0.573946973980834
0.4135002450416372
0.7565360026016283
0.4577341591034682
0.4799126895435709
0.8441289504480229
0.8431915193522713
0.5720147002091701
0.7380051178250185
0.5680153209618451
0.4622118285713512
0.4149819549396014
0.4120419386034518
0.34805470948739803
0.6526249983597533
0.5127882791903339
0.5956071122981931
0.30595499496936546
0.36485072248195816
0.5873117444170722
0.384567555943228
0.6966874351488307
0.7071440372541681
0.7639099847880643
0.49992941738324936
0.5891134617554091
0.32139271485895754
0.28727325311982904
0.7052810391776695
0.38220925091081664
0.6267086811824845
0.8205173176045668
0.7441821507527806
0.8849960895220031
0.5716611842937062
0.8202954269174076
0.43178715207163376
0.6478498803737291
0.7445684067814885
0.8753434007958654
0.4195215806131296
0.4888797966765767
0.3283265787417726
0.48069296150421326
0.6035416185321043
0.5633537559534687
0.4703083275533456
0.2951539529613469
0.34398946200210906
0.5724717187237646
0.4326562505166957
0.34660693197112896
0.24265255490231902
0.2198858176757155
0.22387030338771055
0.5801287273517647
0.6985763143380495
0.6881274655821189
0.7036063922573422
0.612925045551217
0.37941438658143284
0.5657542119476007
0.6977668788236651
0.39786840159981046
0.692862220457933
0.7135051308343708
0.6476416642911311
0.4236841669547317
0.735109223291575
0.7187651275415233
0.45773967645824526
0.6634157779355669
0.3912636233686246
0.5584593136662338
0.6819326895039834
0.7809257164974751
0.6253129736808649
0.6529455935256081
0.3466627523761055
0.3084492096015368
0.5242919132952988
0.5965972518255135
0.854806415371472
0.6619329620930566
0.6743430258365946
0.5431110329433669
0.7243522660274883
0.5843529327640344
0.6372069832389382
0.43587617783548066
0.7167819972846743
0.6014293562260241
0.3515144900793712
0.4658694539782796
0.634953598269482
0.6005619315524512
0.8521817615304021
0.4062843000633195
0.4795107331396965
0.7613993074630421
0.8532844559992525
0.433337537858752
0.4910428982669964
0.32818136805575376
0.4097414705508317
0.5772771492706438
0.7731290993369911
0.5792119431483465
0.4310545768711681
0.6497730946799011
0.6989508241777052
0.7525932404110799
0.6001436201968295
0.5902673291026518
0.6158205904887627
0.6325659948311659
0.8851521173316723
0.2885123207489123
0.35206368036235436
0.5724342852194378
0.36446900913656516
0.6911221944125787
0.4953888693999444
0.6942304571193624
0.7557961931830836
0.5234535500533581
0.29216538838366735
0.5412177727367885
0.36472673178239823
0.37847187883724237
0.6802077752181231
0.4652224774891939
0.7494673719210186
0.7139853775414018
0.6622259988451332
0.5699230470159392
0.6399614538502247
0.8341128699328605
0.42548864715852064
0.6397609590027113
0.3321439171254588
0.30490706387135075
0.7131751957735227
0.8837602867853541
0.6279709126203974
0.6754057105827965
0.6639273615308173
0.6587120110805116
0.4018368237579039
0.3861143600144811
0.4546471512134139
0.6619090394565275
0.694304460686198
0.6392920253447559
0.4684251900730105
0.46592310935512415
0.32701297741860397
0.5517575178150006
0.4047876184672791
0.7518858912911679
0.8425914271419853
0.8468417170103179
0.6361028615893918
0.7205778284077377
0.4163948657718497
0.2670544051360929
0.5045875008015024
0.3326636914637718
0.6357571061453297
0.6962776736735294
0.6520640620954107
0.3461528752129551
0.4432671972472418
0.38723350300959697
0.5217087879706457
0.6249302117414842
0.9104937004789683
0.4775619608709647
0.8040205384690657
0.9309803825865944
0.46899184020116036
0.5104523666567512
0.44118998585582686
0.3886376169502686
0.4231667219615997
0.7145434906295686
0.6958322876236697
0.6434193749441153
0.48819667055867577
0.34626380418680647
0.2825349428927931
0.4556133598077666
0.47938971408022657
0.42815423043106254
0.6708623452444982
0.4816010249214472
0.6886597133463852
0.5402681246368919
0.37478495557954344
0.2770781693390153
0.3250268456124051
0.7202751627706806
0.607589401753383
0.356979565054723
0.5362374996865548
0.6845008743364019
0.7803700369180963
0.6163401196454554
0.9083577838301307
</DataArray>
<DataArray type="Float64" Name="Imag part" format="ascii">
0.0
0.0
0.0
0.0
0.0
0.0
0.0
0.0
0.0
0.0
0.0
0.0
0.0
0.0
0.0
0.0
0.0
0.0
0.0
0.0
0.0
0.0
0.0
0.0
0.0
0.0
0.0
0.0
0.0
0.0
0.0
0.0
0.0
0.0
0.0
0.0
0.0
0.0
0.0
0.0
0.0
0.0
0.0
0.0
0.0
0.0
0.0
0.0
0.0
0.0
0.0
0.0
0.0
0.0
0.0
0.0
0.0
0.0
0.0
0.0
0.0
0.0
0.0
0.0
0.0
0.0
0.0
0.0
0.0
0.0
0.0
0.0
0.0
0.0
0.0
0.0
0.0
0.0
0.0
0.0
0.0
0.0
0.0
0.0
0.0
0.0
0.0
0.0
0.0
0.0
0.0
0.0
0.0
0.0
0.0
0.0
0.0
0.0
0.0
0.0
0.0
0.0
0.0
0.0
0.0
0.0
0.0
0.0
0.0
0.0
0.0
0.0
0.0
0.0
0.0
0.0
0.0
0.0
0.0
0.0
0.0
0.0
0.0
0.0
0.0
0.0
0.0
0.0
0.0
0.0
0.0
0.0
0.0
0.0
0.0
0.0
0.0
0.0
0.0
0.0
0.0
0.0
0.0
0.0
0.0
0.0
0.0
0.0
0.0
0.0
0.0
0.0
0.0
0.0
0.0
0.0
0.0
0.0
0.0
0.0
0.0
0.0
0.0
0.0
0.0
0.0
0.0
0.0
0.0
0.0
0.0
0.0
0.0
0.0
0.0
0.0
0.0
0.0
0.0
0.0
0.0
0.0
0.0
0.0
0.0
0.0
0.0
0.0
0.0
0.0
0.0
0.0
0.0
0.0
0.0
0.0
0.0
0.0
0.0
0.0
0.0
0.0
0.0
0.0
0.0
0.0
0.0
0.0
0.0
0.0
0.0
0.0
0.0
0.0
0.0
0.0
0.0
0.0
0.0
0.0
0.0
0.0
0.0
0.0
0.0
0.0
0.0
0.0
0.0
0.0
0.0
0.0
0.0
0.0
0.0
0.0
0.0
0.0
0.0
0.0
0.0
0.0
0.0
0.0
0.0
0.0
0.0
0.0
0.0
0.0
0.0
0.0
0.0
0.0
0.0
0.0
0.0
0.0
0.0
0.0
0.0
0.0
0.0
0.0
0.0
0.0
0.0
0.0
0.0
0.0
0.0
0.0
0.0
0.0
0.0
0.0
0.0
0.0
0.0
0.0
0.0
0.0
0.0
0.0
0.0
0.0
0.0
0.0
0.0
0.0
0.0
0.0
0.0
0.0
0.0
0.0
0.0
0.0
0.0
0.0
0.0
0.0
0.0
0.0
0.0
0.0
0.0
0.0
0.0
0.0
0.0
0.0
0.0
0.0
0.0
0.0
0.0
0.0
0.0
0.0
0.0
0.0
0.0
0.0
0.0
0.0
0.0
0.0
0.0
0.0
0.0
0.0
0.0
0.0
0.0
0.0
0.0
0.0
0.0
0.0
0.0
0.0
0.0
0.0
0.0
0.0
0.0
0.0
0.0
0.0
0.0
0.0
0.0
0.0
0.0
0.0
0.0
0.0
0.0
0.0
0.0
0.0
0.0
0.0
0.0
0.0
0.0
0.0
0.0
0.0
0.0
0.0
0.0
0.0
0.0
0.0
0.0
0.0
0.0
0.0
0.0
0.0
0.0
0.0
0.0
0.0
0.0
0.0
0.0
0.0
0.0
0.0
0.0
0.0
0.0
0.0
0.0
0.0
0.0
0.0
0.0
0.0
0.0
0.0
0.0
0.0
0.0
0.0
0.0
0.0
0.0
0.0
0.0
0.0
0.0
0.0
0.0
0.0
0.0
0.0
0.0
0.0
0.0
0.0
0.0
0.0
0.0
0.0
0.0
0.0
0.0
0.0
0.0
0.0
0.0
0.0
0.0
0.0
0.0
0.0
0.0
0.0
0.0
0.0
0.0
0.0
0.0
0.0
0.0
0.0
0.0
0.0
0.0
0.0
0.0
0.0
0.0
0.0
0.0
0.0
0.0
0.0
0.0
0.0
0.0
0.0
0.0
0.0
0.0
0.0
0.0
0.0
0.0
0.0
0.0
0.0
0.0
0.0
0.0
0.0
0.0
0.0
0.0
0.0
0.0
0.0
0.0
0.0
0.0
0.0
0.0
0.0
0.0
0.0
0.0
0.0
0.0
0.0
0.0
0.0
0.0
0.0
0.0
0.0
0.0
0.0
0.0
0.0
0.0
0.0
0.0
0.0
0.0
0.0
0.0
0.0
0.0
0.0
0.0
0.0
0.0
0.0
0.0
0.0
0.0
0.0
0.0
0.0
0.0
0.0
0.0
0.0
0.0
0.0
0.0
0.0
0.0
0.0
0.0
0.0
0.0
0.0
0.0
0.0
0.0
0.0
0.0
0.0
0.0
0.0
0.0
0.0
0.0
0.0
0.0
0.0
0.0
0.0
0.0
0.0
0.0
</DataArray>
</PointData>
</Piece>
</UnstructuredGrid>
</VTKFile>
