<VTKFile type="UnstructuredGrid" version="1.0" byte_order="LittleEndian" header_type="UInt64">
<UnstructuredGrid>
<Piece NumberOfPoints="561" NumberOfCells="1026">
<Points>
<DataArray NumberOfComponents="3" type="Float64">
0.0 0.0 0.0
1.0 0.0 0.0
1.0 1.0 0.0
0.0 1.0 0.0
0.2 0.25 0.0
0.15 0.2 0.0
0.2 0.15 0.0
0.25 0.2 0.0
0.2 0.55 0.0
0.15 0.5 0.0
0.2 0.45 0.0
0.25 0.5 0.0
0.2 0.8500000000000001 0.0
0.15 0.8 0.0
0.2 0.75 0.0
0.25 0.8 0.0
0.5 0.25 0.0
0.45 0.2 0.0
0.5 0.15 0.0
0.55 0.2 0.0
0.5 0.55 0.0
0.45 0.5 0.0
0.5 0.45 0.0
0.55 0.5 0.0
0.5 0.8500000000000001 0.0
0.45 0.8 0.0
0.5 0.75 0.0
0.55 0.8 0.0
0.8 0.25 0.0
0.75 0.2 0.0
0.8 0.15 0.0
0.8500000000000001 0.2 0.0
0.8 0.55 0.0
0.75 0.5 0.0
0.8 0.45 0.0
0.8500000000000001 0.5 0.0
0.8 0.8500000000000001 0.0
0.75 0.8 0.0
0.8 0.75 0.0
0.8500000000000001 0.8 0.0
0.1646446608727939 0.2353553389914487 0.0
0.1646446610085513 0.1646446608727939 0.0
0.2353553391272061 0.1646446610085513 0.0
0.2353553389914487 0.2353553391272061 0.0
0.1646446608926911 0.5353553390113459 0.0
0.1646446610424293 0.464644660838916 0.0
0.2353553391217903 0.4646446610031355 0.0
0.2353553389872769 0.5353553391313779 0.0
0.1646446608926911 0.835355339011346 0.0
0.1646446610127232 0.7646446608686222 0.0
0.2353553391073089 0.7646446609886541 0.0
0.09999999999981467 0.0 0.0
0.1999999999995579 0.0 0.0
0.2999999999992664 0.0 0.0
0.3999999999989749 0.0 0.0
0.4999999999986943 0.0 0.0
0.5999999999989468 0.0 0.0
0.69999999999921 0.0 0.0
0.7999999999994734 0.0 0.0
0.8999999999997368 0.0 0.0
0.464644660838916 0.2353553389575707 0.0
0.4646446610031355 0.1646446608782098 0.0
0.5353553391313779 0.1646446610127232 0.0
0.5353553390113459 0.2353553391073089 0.0
0.4646446609191431 0.535355339037798 0.0
0.4646446610370135 0.4646446608443318 0.0
0.5353553391259621 0.4646446610073074 0.0
0.5353553390335396 0.5353553390851152 0.0
0.4646446609191431 0.835355339037798 0.0
0.4646446610073074 0.7646446608740379 0.0
1.0 0.09999999999981467 0.0
1.0 0.1999999999995579 0.0
1.0 0.2999999999992664 0.0
1.0 0.3999999999989749 0.0
1.0 0.4999999999986943 0.0
1.0 0.5999999999989468 0.0
1.0 0.69999999999921 0.0
1.0 0.7999999999994734 0.0
1.0 0.8999999999997368 0.0
0.5353553390335396 0.8353553390851153 0.0
0.7646446608686222 0.2353553389872769 0.0
0.7646446609886541 0.1646446608926911 0.0
0.8353553391313779 0.1646446610127232 0.0
0.835355339011346 0.2353553391073089 0.0
0.7646446609148848 0.5353553390335396 0.0
0.7646446609622021 0.4646446609191431 0.0
0.8353553391259622 0.4646446610073074 0.0
0.8353553390335396 0.5353553390851152 0.0
0.7646446609148848 0.8353553390335396 0.0
0.8999999999995836 1.0 0.0
0.7999999999999998 1.0 0.0
0.7000000000006934 1.0 0.0
0.6000000000013869 1.0 0.0
0.5000000000020587 1.0 0.0
0.4000000000016644 1.0 0.0
0.3000000000012483 1.0 0.0
0.2000000000008322 1.0 0.0
0.100000000000416 1.0 0.0
0.8353553390851153 0.7646446609664604 0.0
0.8353553390335396 0.8353553390851153 0.0
0.0 0.8999999999995836 0.0
0.0 0.7999999999999998 0.0
0.0 0.7000000000006934 0.0
0.0 0.6000000000013869 0.0
0.0 0.5000000000020587 0.0
0.0 0.4000000000016644 0.0
0.0 0.3000000000012483 0.0
0.0 0.2000000000008322 0.0
0.0 0.100000000000416 0.0
0.2353553389872769 0.8353553391313779 0.0
0.5353553390851152 0.7646446609664604 0.0
0.7646446609664604 0.7646446609148848 0.0
0.3433898395275172 0.3506711751366992 0.0
0.6555223459501304 0.3454869675941158 0.0
0.345221666793714 0.6526563204031345 0.0
0.6500000000000001 0.6500000000000001 0.0
0.3376521968691558 0.1382043895083632 0.0
0.1382043895133763 0.3376521967853719 0.0
0.662347803202637 0.1382043895520366 0.0
0.1382043895520382 0.6376521967973626 0.0
0.3623478031405708 0.861795610525198 0.0
0.8617956104989657 0.362347803199541 0.0
0.6376521968143625 0.8617956104085769 0.0
0.8617956104085793 0.6623478031856377 0.0
0.4577442078074788 0.351070261471894 0.0
0.35 0.4583333333333333 0.0
0.6459020038819421 0.4617868175191547 0.0
0.4583333333333332 0.65 0.0
0.5530890607669136 0.3613201225761349 0.0
0.3273703710454821 0.5577318018698613 0.0
0.6312499999999998 0.5541666666666667 0.0
0.5541666666666664 0.6687499999999998 0.0
0.2439339827500904 0.3534009741251356 0.0
0.3534009741333171 0.2439339827555447 0.0
0.645542633255165 0.2494789938936431 0.0
0.7540219891571036 0.3491277921959138 0.0
0.249952272779098 0.6530833888937803 0.0
0.3484148065846917 0.7545879643268294 0.0
0.6531222076166924 0.7497400369911574 0.0
0.7505210060732426 0.645542633241858 0.0
0.4039637890308081 0.5862884104434813 0.0
0.412084139813457 0.4119563048845528 0.0
0.5880044795246634 0.2926772259834077 0.0
0.7067067285638935 0.5871080864771689 0.0
0.4090296395354618 0.7151635620813825 0.0
0.710197217617496 0.4092669477118412 0.0
0.5705712315775688 0.6017363862836691 0.0
0.4129062502019396 0.2900031303949859 0.0
0.2875759077313267 0.4120913242586335 0.0
0.2857822245280523 0.286403119234693 0.0
0.7121827393464313 0.2851331787597786 0.0
0.7150652678408427 0.7134888166540321 0.0
0.2854198242405634 0.7144204535284502 0.0
0.596355661119427 0.4317463272007821 0.0
0.5195729035608143 0.3137550414159756 0.0
0.6814429780261859 0.5177727375312514 0.0
0.3826688547938011 0.5174013060277558 0.0
0.2742095802077177 0.5888719740076885 0.0
0.5881583496321303 0.7258694804636643 0.0
0.512916648925923 0.6130876559396792 0.0
0.4956876225771484 0.3916916101055488 0.0
0.6091203914685013 0.4955611555134115 0.0
0.3081086880202347 0.4951904105963052 0.0
0.4999999999999998 0.6913194444444444 0.0
0.05985636373714733 0.4420530910850028 0.0
0.9358864235191767 0.1421319380791616 0.0
0.2579469087763238 0.940143636305655 0.0
0.2572591731173738 0.07045208466228416 0.0
0.06411357656219142 0.1421319379513652 0.0
0.5579469089030646 0.05985636373221363 0.0
0.1421319380781085 0.06411357648234975 0.0
0.07045208466695235 0.2572591730084375 0.0
0.9295479153439864 0.4427408269776643 0.0
0.05985636373118473 0.7420530910991101 0.0
0.857868062047356 0.06411357656456783 0.0
0.9401436362836448 0.2579469088865591 0.0
0.4420530912261119 0.05985636371218914 0.0
0.1421319379601523 0.9358864234555444 0.0
0.07045208468232296 0.5572591730179106 0.0
0.06411357648701377 0.8578680619420427 0.0
0.7427408269774269 0.07045208468143335 0.0
0.9401436362796813 0.5579469088793961 0.0
0.7420530911272205 0.9401436362825517 0.0
0.9358864234788886 0.8578680620215167 0.0
0.557259173049598 0.9295479153066358 0.0
0.8578680619732905 0.9358864235092152 0.0
0.9295479153065642 0.7427408269514637 0.0
0.4427408269129883 0.9295479153609203 0.0
0.3143918185721838 0.19209726506541 0.0
0.1920972650952285 0.3143918185536934 0.0
0.685543141712359 0.1913525648670957 0.0
0.1935957104113677 0.6144796997410339 0.0
0.809504244004653 0.3856396610029235 0.0
0.3856396609623359 0.8095042440251847 0.0
0.6144796997484514 0.8064042895564912 0.0
0.8086474350951405 0.6855431417113358 0.0
0.1892629235394513 0.3860472153512443 0.0
0.3860472153840332 0.1892629235625572 0.0
0.6139842252634227 0.1894054608058127 0.0
0.1892545645570567 0.6860837355980296 0.0
0.8107370764580965 0.3139527846426451 0.0
0.3139162643942123 0.8107454354581183 0.0
0.6860472153811453 0.8107370764108126 0.0
0.8105945391657486 0.6139842252475645 0.0
0.4611414873717721 0.5920261295844056 0.0
0.64588989174686 0.4045281252147507 0.0
0.4077563014273697 0.4649729498043385 0.0
0.1352479275248563 0.4080729418485258 0.0
0.5919270581242425 0.1352479275322719 0.0
0.1352479275322713 0.7080729418757574 0.0
0.8647520724968161 0.2919270581077186 0.0
0.4080729420117861 0.1352479275090695 0.0
0.291927057990262 0.8647520725184488 0.0
0.708072941916764 0.8647520724650545 0.0
0.8647520724650537 0.5919270580832346 0.0
0.4023937232125269 0.3536208203306642 0.0
0.3541738588628671 0.4031000864928675 0.0
0.4048342686835711 0.6447434006119712 0.0
0.71316561210788 0.4653396854661837 0.0
0.2874850431956504 0.1351923300651653 0.0
0.1351923301412642 0.287485043121117 0.0
0.4125149568291094 0.8648076699653156 0.0
0.8648076698863019 0.4125149568736285 0.0
0.7125149568579259 0.1351923301736325 0.0
0.1351923301736628 0.5874850431419016 0.0
0.5874850431667454 0.8648076697977991 0.0
0.8648076697977938 0.7125149568332956 0.0
0.4669565156295485 0.2870570218847242 0.0
0.590687671546755 0.2407081407199352 0.0
0.7592918592591411 0.5906876715490426 0.0
0.628314831649785 0.604448761006592 0.0
0.2943959469377353 0.644686885458281 0.0
0.6435962868630796 0.7139205107269279 0.0
0.3541603945295475 0.6083266947287502 0.0
0.6381293107031111 0.2969749241621514 0.0
0.7033184070609535 0.6390130951465713 0.0
0.2365527442584948 0.4117538692896706 0.0
0.7538888166046027 0.2890016099317594 0.0
0.7108528717570168 0.7535478998948462 0.0
0.412428250006682 0.2451687953606375 0.0
0.3646049217394279 0.291369123885017 0.0
0.2997666023716281 0.3650313382879617 0.0
0.703282664384316 0.3560855151264761 0.0
0.358138582971924 0.7055356210530691 0.0
0.9402343666375695 0.6245829212181908 0.0
0.6754170787829508 0.9402343666380462 0.0
0.3245829211491601 0.940234366681378 0.0
0.3754170788557261 0.05976563334184509 0.0
0.6245829212382927 0.05976563334993901 0.0
0.05976563334976909 0.6754170787621089 0.0
0.9402343666753659 0.3245829212273756 0.0
0.05976563333581809 0.3754170787494793 0.0
0.6039102987483714 0.3686712308599859 0.0
0.6012930499303716 0.6517346089211749 0.0
0.2864297804870796 0.2405172437802475 0.0
0.4136086917315461 0.7616115504825639 0.0
0.2404795313617054 0.2864674927196282 0.0
0.758353287519132 0.4143267069527965 0.0
0.2830927819934522 0.761721308423855 0.0
0.2383775627313655 0.7168147508404688 0.0
0.7194341630926276 0.2412202997664903 0.0
0.7588080497214451 0.7196207455854151 0.0
0.5781661925444088 0.5462409467938331 0.0
0.5425156010469789 0.4175588442268487 0.0
0.2838157140155749 0.5421456515675847 0.0
0.5416674579335911 0.7178559517551015 0.0
0.4572520847679629 0.4146290290264605 0.0
0.4514650015977484 0.7124530617828471 0.0
0.2825175937747805 0.4632535898271452 0.0
0.419560766274629 0.545841732107458 0.0
0.5417004983287753 0.2884467063260733 0.0
0.7105882437563859 0.5409816789747722 0.0
[...]
<PointData Scalars="solution">
<DataArray type="Float64" Name="Real part" format="ascii">
0.2265192709757328
0.48655723941282897
0.5623773196148791
0.3191924005948261
0.3417748689208157
0.294495614781103
0.3091472627351111
0.36368479552763927
0.454097802125173
0.3991426623162096
0.41928213000204667
0.4816498447751527
0.5082081588402713
0.4800966059275182
0.5203400155533313
0.562424765257135
0.6661757281668143
0.5861901697540398
0.6044923243660695
0.6868908883913859
0.7825353855226959
0.7143231019072913
0.7536831360934447
0.8174813764831668
0.7989887180591942
0.7876640420169324
0.847078851452947
0.8774891372292853
0.9253961639332408
0.886842331398224
0.8440465714274875
0.8724897361184274
1.037737721026883
1.0210607596979837
1.0116286627995297
0.9935888346577375
1.0279532757895222
1.0709507082057155
1.091028016918931
1.0362994704318302
0.31207495543616065
0.29291808577599604
0.33709867488524264
0.36085678477482536
0.4195750716382659
0.39822151104694237
0.4556765086527153
0.4777945150449954
0.48531586239882746
0.4930644068111708
0.5501954648237933
0.2321499907103293
0.25685873730308684
0.29525053579639465
0.35450896591313813
0.41257430059110173
0.45475105351389444
0.49469325594835767
0.5273360125102766
0.5074127932905788
0.6212487037852709
0.5816723902719663
0.6488628212043991
0.6943910816756728
0.736445233325323
0.7140389891178378
0.7882955029672775
0.8098236804842138
0.7755715592370332
0.8036941501632836
0.5145227533623945
0.5582437983192686
0.575773683994024
0.5957308649568216
0.6299420196344359
0.6296693896692976
0.6300148919254727
0.6388509212592891
0.595264245310544
0.8376502576002209
0.9142635832241109
0.8520581005751069
0.8506925568795365
0.906344809010055
1.0364531642106796
1.0069333074786322
0.9884463778800889
1.0183555548252152
1.048602823206732
0.5919765761710065
0.6228004745049214
0.5986061414663354
0.5551997901428233
0.5245817350440792
0.46208388169239595
0.40868574927733037
0.3690826482390681
0.3336937683508859
1.057193888671935
1.0246493030446537
0.325789431228732
0.33396122886713614
0.32525368902364066
0.30801146268412544
0.29538325050007275
0.27445515354004607
0.25181346233881374
0.2384002637639691
0.22796457267046588
0.5418845003489156
0.8714752305400832
1.0895663882403503
0.39556215872070394
0.5994022927417078
0.4642165399095249
0.6599311485659269
0.34789924235339714
0.2894150884894693
0.560455039946731
0.35817848910807315
0.49817786977261463
0.6747594035486613
0.6628390361619301
0.7305659420891782
0.5085172344155685
0.45254481040644795
0.6700112505234729
0.5814349084331517
0.5708129723893581
0.4528152439399922
0.6729502616811625
0.6425511229913627
0.3422162378430849
0.39110021805634504
0.5952870337715862
0.6848594447105757
0.41753266732174094
0.5041998462676275
0.7092791210388478
0.7460362537227185
0.529807075937554
0.5008110516643025
0.5723899865045357
0.7314724935829249
0.5629821950370943
0.6965739000096781
0.6500514716583815
0.45937446697147627
0.3912433695142481
0.3506796685122699
0.6659144758574631
0.7669477823715907
0.4602203861407617
0.6399510315654887
0.5570837496356463
0.7333921844619341
0.5133313466991515
0.42860659016396235
0.6932388041525486
0.6359115369384317
0.5794225845856192
0.6827986250915554
0.4420090248806357
0.653841317382721
0.2907538471847836
0.562346734209407
0.4022993312880497
0.28362302157239744
0.2348220165353428
0.45442629254136613
0.24263762931570415
0.2521662814923056
0.6581562774881606
0.34163259374957466
0.5487894011400358
0.5966025192678593
0.39366886994210853
0.3578611100173643
0.3164695438589562
0.3430725687169891
0.5528498951342072
0.6626593049786672
0.6473500650004752
0.653066232934873
0.5807826787243764
0.6470882730287991
0.6882696038982808
0.5234769429322496
0.35432120865895067
0.31224058418873685
0.6388975072031577
0.3919019458856447
0.7409320328536287
0.5605199111283374
0.7087162507491859
0.8030129933619684
0.3352409785100498
0.4216641465837116
0.5778130327666687
0.409436825249081
0.7133764462132405
0.4921238956456213
0.7625664825528203
0.7864283738031385
0.6133719714580276
0.6263563559543616
0.5448512409101519
0.31782457530742525
0.5368724136803489
0.38622744563183514
0.6909970901722722
0.4211712756519022
0.46413093276377765
0.7460378952650547
0.7633486281097395
0.4512466273860229
0.42700071888004015
0.5207571181092955
0.7916713063388271
0.3199465929718048
0.2813925150199402
0.5641794271399425
0.73050113791354
0.6207180450755497
0.35735163814403953
0.6673773922215337
0.7807579169213813
0.5385329504946741
0.5968291883896379
0.8118341024854605
0.6534303238619408
0.432385722230513
0.6818397160082943
0.46849562244159043
0.5841928653489866
0.7009866544217822
0.3777236656816126
0.7241622677592726
0.8156805970482018
0.4739316504428714
0.40376363734397713
0.3716669329637463
0.641636430539918
0.4922933971740095
0.6470595806062371
0.6057893535490365
0.4282559103176678
0.34423806620943076
0.47649626177573956
0.32708838113966454
0.5950380155448576
0.27166280639059537
0.5856058238155343
0.6415068993187033
0.3515025273960445
0.6133227989812579
0.33428663925458807
0.7808913651906844
0.49065740763746973
0.4582655715417186
0.7145683024767521
0.8550249445861273
0.6996394823102944
0.6385326117914296
0.4434886824408987
0.7092557683524807
0.5730863968726826
0.6332245159510327
0.4259988689114637
0.5805216976483312
0.5821598079508716
0.7913645540167935
0.5071406982954538
0.6959300347607187
0.4203417500246004
0.7429848021861334
0.6737264678698892
0.6773695355199219
0.4541617859254445
0.5619715222854508
0.7061710809025218
0.5755469398022968
0.6853699417625532
0.6253327430759104
0.6192384245697575
0.5526158039256573
0.6828011938419545
0.46150267413970053
0.6338741921486494
0.44214512813520945
0.36716980508229097
0.6679186737717296
0.26580178727268233
0.6320395045888656
0.31726614932000646
0.3279031071957611
0.5233861107915618
0.4774656999369023
0.6038331186336852
0.6768196600746524
0.6346960679635483
0.5083832194918928
0.5589440053703664
0.555849755587655
0.478336779271755
0.6527330747148626
0.47668078281028403
0.41857413133404625
0.5092966773201663
0.5993024966447109
0.32919974554349385
0.22736062884202277
0.514626788584119
0.8039122822174684
0.43217153140956327
0.4005626905750163
0.5203126944291956
0.6594978314476704
0.6984298344628073
0.5386917732300498
0.3480190841775547
0.36931764842682513
0.7282927166212717
0.3360934449723925
0.2969375144708582
0.26043162247390295
0.5157517517964615
0.7076589914337262
0.41785978415506314
0.3997296015873883
0.6781834401919222
0.4444192655894744
0.690647216223371
0.27256227290353624
0.2683263548262173
0.7952591555047418
0.4772224605478234
0.7959683387665378
0.3540662661137151
0.6772763953995401
0.4028403353895448
0.8024212862399069
0.816717232130474
0.6362338069773886
0.6766935978823617
0.8360788252897191
0.808913443109436
0.6139467517851495
0.7329997330916977
0.4349178765785501
0.6622355624549149
0.3520165524975652
0.5854577086640425
0.43067896537668043
0.762837544347076
0.47424658431289535
0.494147358096404
0.8479427492266888
0.8477862514729704
0.5820665156926447
0.7430139896706222
0.5816857048440218
0.4761323446416857
0.43062715478172336
0.42843912598804124
0.3661647491261237
0.6601496729310801
0.5260125708021913
0.6060703937886636
0.3256004761524908
0.3825715478855549
0.5971772177158291
0.40128543490524915
0.7029899272797951
0.7128842925273775
0.767894521851775
0.5129602953424168
0.5990348607872846
0.34072012499443854
0.3080886866676109
0.7143403018120631
0.4000405446106705
0.6382653605997132
0.8258854640284553
0.7509614939737325
0.8883116099966349
0.5852799154659456
0.8265493019055206
0.4463182498153167
0.6581372161606778
0.752361645655752
0.8798135007124619
0.4354636945236016
0.501933363024511
0.34735572600388803
0.4953154771127126
0.6140771140471711
0.5761811283794053
0.4853587798171555
0.3152889606760684
0.36192999008962184
0.5808746301947922
0.447219056928245
0.3639115905940855
0.26450799855163093
0.24296600135624782
0.24680305619456633
0.5874692905935165
0.7020956406392747
0.690903911762191
0.7062074958532387
0.6194089478662586
0.39531555636984855
0.5748720421770359
0.7017261919054842
0.4139833822820413
0.6992170874339424
0.7204862220413957
0.6542233506872485
0.4398430972952648
0.7426132982546773
0.7270444920455621
0.4723301947922097
0.6701238386970328
0.40889375719769927
0.5686966052090431
0.6889308267418474
0.7850371972025446
0.634530292117755
0.6641311611946551
0.36479365517189605
0.327903580125017
0.5373897928260271
0.6075838167923341
0.8590370032343284
0.6715682045846905
0.6820114315707778
0.5555323602738933
0.7306478728961073
0.5964080517638122
0.6486905225387796
0.45201458552492507
0.725897425903085
0.6103670085459114
0.37068685952043157
0.4822265564538236
0.6423846892165858
0.6118062734241422
0.8574177317817224
0.4225571647878534
0.4932156303776216
0.7681568425830202
0.8580341153067209
0.4498610779920153
0.5052222786972388
0.34724510850855234
0.42656584274693765
0.5875524418602011
0.7774287452490484
0.5903959713799376
0.4464875730449539
0.6585209148953209
0.7056898317563609
0.7578337736047779
0.6103042059037749
0.5990681239271861
0.6293355646582727
0.6408079681777444
0.8914055961076662
0.30884231425724173
0.37011573990743185
0.5825592014266975
0.3819291242815569
0.6970080694190016
0.5082775897192595
0.6999623611588197
0.7593910238166619
0.5362193184894456
0.31255741615721916
0.5521179557735103
0.38233574277093646
0.3959399844662172
0.6861525502909506
0.4787283339420469
0.7530323330003663
0.7191809832143443
0.6733722563220818
0.583818906742389
0.6516676348100106
0.8399273606537814
0.4408246121492125
0.6466029124449146
0.3511330186628797
0.32501132597234855
0.7220333878427115
0.8874618901687014
0.6358959434415561
0.6837896335266281
0.6717607899508674
0.6666000735077571
0.4178165201697932
0.4025751114440432
0.4693916198716647
0.6686516248886964
0.7044071943596062
0.6522102509872009
0.4845475836709397
0.48055181717893236
0.3471831781427336
0.5641281983582106
0.4223872852967272
0.7580698828333285
0.8462706169973487
0.8511105436395051
0.648384412670844
0.7275429913078704
0.43160742050936163
0.2880953356886423
0.5156936165724159
0.3509130439229836
0.6413768230187005
0.6995775780454894
0.6574205885810684
0.36402254257949057
0.45659688276746857
0.40564090810992437
0.5373271814745253
0.6360932875718608
0.915171297685484
0.4907135170512787
0.8112868044187921
0.9354859290431312
0.4832948905992936
0.524717616605826
0.4563684835712401
0.4053955645015828
0.4374427447497785
0.7180166630874188
0.7004380024169194
0.6493345602481158
0.5003867184162712
0.3643507539248227
0.3032607788244012
0.4698707399674444
0.49295741212416566
0.4437171384500534
0.6767358343385688
0.49611309591036096
0.6948229453210648
0.5519717004410523
0.391571358071846
0.29787152203269057
0.3438588054242494
0.7257860402570485
0.6172320935143807
0.37485167770968897
0.5484068263336841
0.6907934315797926
0.7837236891033461
0.6283814677746212
0.9140200354916146
</DataArray>
<DataArray type="Float64" Name="Imag part" format="ascii">
0.0
0.0
0.0
0.0
0.0
0.0
0.0
0.0
0.0
0.0
0.0
0.0
0.0
0.0
0.0
0.0
0.0
0.0
0.0
0.0
0.0
0.0
0.0
0.0
0.0
0.0
0.0
0.0
0.0
0.0
0.0
0.0
0.0
0.0
0.0
0.0
0.0
0.0
0.0
0.0
0.0
0.0
0.0
0.0
0.0
0.0
0.0
0.0
0.0
0.0
0.0
0.0
0.0
0.0
0.0
0.0
0.0
0.0
0.0
0.0
0.0
0.0
0.0
0.0
0.0
0.0
0.0
0.0
0.0
0.0
0.0
0.0
0.0
0.0
0.0
0.0
0.0
0.0
0.0
0.0
0.0
0.0
0.0
0.0
0.0
0.0
0.0
0.0
0.0
0.0
0.0
0.0
0.0
0.0
0.0
0.0
0.0
0.0
0.0
0.0
0.0
0.0
0.0
0.0
0.0
0.0
0.0
0.0
0.0
0.0
0.0
0.0
0.0
0.0
0.0
0.0
0.0
0.0
0.0
0.0
0.0
0.0
0.0
0.0
0.0
0.0
0.0
0.0
0.0
0.0
0.0
0.0
0.0
0.0
0.0
0.0
0.0
0.0
0.0
0.0
0.0
0.0
0.0
0.0
0.0
0.0
0.0
0.0
0.0
0.0
0.0
0.0
0.0
0.0
0.0
0.0
0.0
0.0
0.0
0.0
0.0
0.0
0.0
0.0
0.0
0.0
0.0
0.0
0.0
0.0
0.0
0.0
0.0
0.0
0.0
0.0
0.0
0.0
0.0
0.0
0.0
0.0
0.0
0.0
0.0
0.0
0.0
0.0
0.0
0.0
0.0
0.0
0.0
0.0
0.0
0.0
0.0
0.0
0.0
0.0
0.0
0.0
0.0
0.0
0.0
0.0
0.0
0.0
0.0
0.0
0.0
0.0
0.0
0.0
0.0
0.0
0.0
0.0
0.0
0.0
0.0
0.0
0.0
0.0
0.0
0.0
0.0
0.0
0.0
0.0
0.0
0.0
0.0
0.0
0.0
0.0
0.0
0.0
0.0
0.0
0.0
0.0
0.0
0.0
0.0
0.0
0.0
0.0
0.0
0.0
0.0
0.0
0.0
0.0
0.0
0.0
0.0
0.0
0.0
0.0
0.0
0.0
0.0
0.0
0.0
0.0
0.0
0.0
0.0
0.0
0.0
0.0
0.0
0.0
0.0
0.0
0.0
0.0
0.0
0.0
0.0
0.0
0.0
0.0
0.0
0.0
0.0
0.0
0.0
0.0
0.0
0.0
0.0
0.0
0.0
0.0
0.0
0.0
0.0
0.0
0.0
0.0
0.0
0.0
0.0
0.0
0.0
0.0
0.0
0.0
0.0
0.0
0.0
0.0
0.0
0.0
0.0
0.0
0.0
0.0
0.0
0.0
0.0
0.0
0.0
0.0
0.0
0.0
0.0
0.0
0.0
0.0
0.0
0.0
0.0
0.0
0.0
0.0
0.0
0.0
0.0
0.0
0.0
0.0
0.0
0.0
0.0
0.0
0.0
0.0
0.0
0.0
0.0
0.0
0.0
0.0
0.0
0.0
0.0
0.0
0.0
0.0
0.0
0.0
0.0
0.0
0.0
0.0
0.0
0.0
0.0
0.0
0.0
0.0
0.0
0.0
0.0
0.0
0.0
0.0
0.0
0.0
0.0
0.0
0.0
0.0
0.0
0.0
0.0
0.0
0.0
0.0
0.0
0.0
0.0
0.0
0.0
0.0
0.0
0.0
0.0
0.0
0.0
0.0
0.0
0.0
0.0
0.0
0.0
0.0
0.0
0.0
0.0
0.0
0.0
0.0
0.0
0.0
0.0
0.0
0.0
0.0
0.0
0.0
0.0
0.0
0.0
0.0
0.0
0.0
0.0
0.0
0.0
0.0
0.0
0.0
0.0
0.0
0.0
0.0
0.0
0.0
0.0
0.0
0.0
0.0
0.0
0.0
0.0
0.0
0.0
0.0
0.0
0.0
0.0
0.0
0.0
0.0
0.0
0.0
0.0
0.0
0.0
0.0
0.0
0.0
0.0
0.0
0.0
0.0
0.0
0.0
0.0
0.0
0.0
0.0
0.0
0.0
0.0
0.0
0.0
0.0
0.0
0.0
0.0
0.0
0.0
0.0
0.0
0.0
0.0
0.0
0.0
0.0
0.0
0.0
0.0
0.0
0.0
0.0
0.0
0.0
0.0
0.0
0.0
0.0
0.0
0.0
0.0
0.0
0.0
0.0
0.0
0.0
0.0
0.0
0.0
0.0
0.0
0.0
0.0
0.0
0.0
0.0
0.0
0.0
0.0
0.0
0.0
0.0
0.0
0.0
0.0
0.0
0.0
0.0
0.0
0.0
0.0
0.0
0.0
0.0
0.0
0.0
0.0
0.0
0.0
0.0
0.0
0.0
0.0
0.0
0.0
0.0
0.0
0.0
0.0
0.0
0.0
0.0
0.0
</DataArray>
</PointData>
</Piece>
</UnstructuredGrid>
</VTKFile>
