<VTKFile type="UnstructuredGrid" version="1.0" byte_order="LittleEndian" header_type="UInt64">
<UnstructuredGrid>
<Piece NumberOfPoints="561" NumberOfCells="1026">
<Points>
<DataArray NumberOfComponents="3" type="Float64">
0.0 0.0 0.0
1.0 0.0 0.0
1.0 1.0 0.0
0.0 1.0 0.0
0.2 0.25 0.0
0.15 0.2 0.0
0.2 0.15 0.0
0.25 0.2 0.0
0.2 0.55 0.0
0.15 0.5 0.0
0.2 0.45 0.0
0.25 0.5 0.0
0.2 0.8500000000000001 0.0
0.15 0.8 0.0
0.2 0.75 0.0
0.25 0.8 0.0
0.5 0.25 0.0
0.45 0.2 0.0
0.5 0.15 0.0
0.55 0.2 0.0
0.5 0.55 0.0
0.45 0.5 0.0
0.5 0.45 0.0
0.55 0.5 0.0
0.5 0.8500000000000001 0.0
0.45 0.8 0.0
0.5 0.75 0.0
0.55 0.8 0.0
0.8 0.25 0.0
0.75 0.2 0.0
0.8 0.15 0.0
0.8500000000000001 0.2 0.0
0.8 0.55 0.0
0.75 0.5 0.0
0.8 0.45 0.0
0.8500000000000001 0.5 0.0
0.8 0.8500000000000001 0.0
0.75 0.8 0.0
0.8 0.75 0.0
0.8500000000000001 0.8 0.0
0.1646446608727939 0.2353553389914487 0.0
0.1646446610085513 0.1646446608727939 0.0
0.2353553391272061 0.1646446610085513 0.0
0.2353553389914487 0.2353553391272061 0.0
0.1646446608926911 0.5353553390113459 0.0
0.1646446610424293 0.464644660838916 0.0
0.2353553391217903 0.4646446610031355 0.0
0.2353553389872769 0.5353553391313779 0.0
0.1646446608926911 0.835355339011346 0.0
0.1646446610127232 0.7646446608686222 0.0
0.2353553391073089 0.7646446609886541 0.0
0.09999999999981467 0.0 0.0
0.1999999999995579 0.0 0.0
0.2999999999992664 0.0 0.0
0.3999999999989749 0.0 0.0
0.4999999999986943 0.0 0.0
0.5999999999989468 0.0 0.0
0.69999999999921 0.0 0.0
0.7999999999994734 0.0 0.0
0.8999999999997368 0.0 0.0
0.464644660838916 0.2353553389575707 0.0
0.4646446610031355 0.1646446608782098 0.0
0.5353553391313779 0.1646446610127232 0.0
0.5353553390113459 0.2353553391073089 0.0
0.4646446609191431 0.535355339037798 0.0
0.4646446610370135 0.4646446608443318 0.0
0.5353553391259621 0.4646446610073074 0.0
0.5353553390335396 0.5353553390851152 0.0
0.4646446609191431 0.835355339037798 0.0
0.4646446610073074 0.7646446608740379 0.0
1.0 0.09999999999981467 0.0
1.0 0.1999999999995579 0.0
1.0 0.2999999999992664 0.0
1.0 0.3999999999989749 0.0
1.0 0.4999999999986943 0.0
1.0 0.5999999999989468 0.0
1.0 0.69999999999921 0.0
1.0 0.7999999999994734 0.0
1.0 0.8999999999997368 0.0
0.5353553390335396 0.8353553390851153 0.0
0.7646446608686222 0.2353553389872769 0.0
0.7646446609886541 0.1646446608926911 0.0
0.8353553391313779 0.1646446610127232 0.0
0.835355339011346 0.2353553391073089 0.0
0.7646446609148848 0.5353553390335396 0.0
0.7646446609622021 0.4646446609191431 0.0
0.8353553391259622 0.4646446610073074 0.0
0.8353553390335396 0.5353553390851152 0.0
0.7646446609148848 0.8353553390335396 0.0
0.8999999999995836 1.0 0.0
0.7999999999999998 1.0 0.0
0.7000000000006934 1.0 0.0
0.6000000000013869 1.0 0.0
0.5000000000020587 1.0 0.0
0.4000000000016644 1.0 0.0
0.3000000000012483 1.0 0.0
0.2000000000008322 1.0 0.0
0.100000000000416 1.0 0.0
0.8353553390851153 0.7646446609664604 0.0
0.8353553390335396 0.8353553390851153 0.0
0.0 0.8999999999995836 0.0
0.0 0.7999999999999998 0.0
0.0 0.7000000000006934 0.0
0.0 0.6000000000013869 0.0
0.0 0.5000000000020587 0.0
0.0 0.4000000000016644 0.0
0.0 0.3000000000012483 0.0
0.0 0.2000000000008322 0.0
0.0 0.100000000000416 0.0
0.2353553389872769 0.8353553391313779 0.0
0.5353553390851152 0.7646446609664604 0.0
0.7646446609664604 0.7646446609148848 0.0
0.3433898395275172 0.3506711751366992 0.0
0.6555223459501304 0.3454869675941158 0.0
0.345221666793714 0.6526563204031345 0.0
0.6500000000000001 0.6500000000000001 0.0
0.3376521968691558 0.1382043895083632 0.0
0.1382043895133763 0.3376521967853719 0.0
0.662347803202637 0.1382043895520366 0.0
0.1382043895520382 0.6376521967973626 0.0
0.3623478031405708 0.861795610525198 0.0
0.8617956104989657 0.362347803199541 0.0
0.6376521968143625 0.8617956104085769 0.0
0.8617956104085793 0.6623478031856377 0.0
0.4577442078074788 0.351070261471894 0.0
0.35 0.4583333333333333 0.0
0.6459020038819421 0.4617868175191547 0.0
0.4583333333333332 0.65 0.0
0.5530890607669136 0.3613201225761349 0.0
0.3273703710454821 0.5577318018698613 0.0
0.6312499999999998 0.5541666666666667 0.0
0.5541666666666664 0.6687499999999998 0.0
0.2439339827500904 0.3534009741251356 0.0
0.3534009741333171 0.2439339827555447 0.0
0.645542633255165 0.2494789938936431 0.0
0.7540219891571036 0.3491277921959138 0.0
0.249952272779098 0.6530833888937803 0.0
0.3484148065846917 0.7545879643268294 0.0
0.6531222076166924 0.7497400369911574 0.0
0.7505210060732426 0.645542633241858 0.0
0.4039637890308081 0.5862884104434813 0.0
0.412084139813457 0.4119563048845528 0.0
0.5880044795246634 0.2926772259834077 0.0
0.7067067285638935 0.5871080864771689 0.0
0.4090296395354618 0.7151635620813825 0.0
0.710197217617496 0.4092669477118412 0.0
0.5705712315775688 0.6017363862836691 0.0
0.4129062502019396 0.2900031303949859 0.0
0.2875759077313267 0.4120913242586335 0.0
0.2857822245280523 0.286403119234693 0.0
0.7121827393464313 0.2851331787597786 0.0
0.7150652678408427 0.7134888166540321 0.0
0.2854198242405634 0.7144204535284502 0.0
0.596355661119427 0.4317463272007821 0.0
0.5195729035608143 0.3137550414159756 0.0
0.6814429780261859 0.5177727375312514 0.0
0.3826688547938011 0.5174013060277558 0.0
0.2742095802077177 0.5888719740076885 0.0
0.5881583496321303 0.7258694804636643 0.0
0.512916648925923 0.6130876559396792 0.0
0.4956876225771484 0.3916916101055488 0.0
0.6091203914685013 0.4955611555134115 0.0
0.3081086880202347 0.4951904105963052 0.0
0.4999999999999998 0.6913194444444444 0.0
0.05985636373714733 0.4420530910850028 0.0
0.9358864235191767 0.1421319380791616 0.0
0.2579469087763238 0.940143636305655 0.0
0.2572591731173738 0.07045208466228416 0.0
0.06411357656219142 0.1421319379513652 0.0
0.5579469089030646 0.05985636373221363 0.0
0.1421319380781085 0.06411357648234975 0.0
0.07045208466695235 0.2572591730084375 0.0
0.9295479153439864 0.4427408269776643 0.0
0.05985636373118473 0.7420530910991101 0.0
0.857868062047356 0.06411357656456783 0.0
0.9401436362836448 0.2579469088865591 0.0
0.4420530912261119 0.05985636371218914 0.0
0.1421319379601523 0.9358864234555444 0.0
0.07045208468232296 0.5572591730179106 0.0
0.06411357648701377 0.8578680619420427 0.0
0.7427408269774269 0.07045208468143335 0.0
0.9401436362796813 0.5579469088793961 0.0
0.7420530911272205 0.9401436362825517 0.0
0.9358864234788886 0.8578680620215167 0.0
0.557259173049598 0.9295479153066358 0.0
0.8578680619732905 0.9358864235092152 0.0
0.9295479153065642 0.7427408269514637 0.0
0.4427408269129883 0.9295479153609203 0.0
0.3143918185721838 0.19209726506541 0.0
0.1920972650952285 0.3143918185536934 0.0
0.685543141712359 0.1913525648670957 0.0
0.1935957104113677 0.6144796997410339 0.0
0.809504244004653 0.3856396610029235 0.0
0.3856396609623359 0.8095042440251847 0.0
0.6144796997484514 0.8064042895564912 0.0
0.8086474350951405 0.6855431417113358 0.0
0.1892629235394513 0.3860472153512443 0.0
0.3860472153840332 0.1892629235625572 0.0
0.6139842252634227 0.1894054608058127 0.0
0.1892545645570567 0.6860837355980296 0.0
0.8107370764580965 0.3139527846426451 0.0
0.3139162643942123 0.8107454354581183 0.0
0.6860472153811453 0.8107370764108126 0.0
0.8105945391657486 0.6139842252475645 0.0
0.4611414873717721 0.5920261295844056 0.0
0.64588989174686 0.4045281252147507 0.0
0.4077563014273697 0.4649729498043385 0.0
0.1352479275248563 0.4080729418485258 0.0
0.5919270581242425 0.1352479275322719 0.0
0.1352479275322713 0.7080729418757574 0.0
0.8647520724968161 0.2919270581077186 0.0
0.4080729420117861 0.1352479275090695 0.0
0.291927057990262 0.8647520725184488 0.0
0.708072941916764 0.8647520724650545 0.0
0.8647520724650537 0.5919270580832346 0.0
0.4023937232125269 0.3536208203306642 0.0
0.3541738588628671 0.4031000864928675 0.0
0.4048342686835711 0.6447434006119712 0.0
0.71316561210788 0.4653396854661837 0.0
0.2874850431956504 0.1351923300651653 0.0
0.1351923301412642 0.287485043121117 0.0
0.4125149568291094 0.8648076699653156 0.0
0.8648076698863019 0.4125149568736285 0.0
0.7125149568579259 0.1351923301736325 0.0
0.1351923301736628 0.5874850431419016 0.0
0.5874850431667454 0.8648076697977991 0.0
0.8648076697977938 0.7125149568332956 0.0
0.4669565156295485 0.2870570218847242 0.0
0.590687671546755 0.2407081407199352 0.0
0.7592918592591411 0.5906876715490426 0.0
0.628314831649785 0.604448761006592 0.0
0.2943959469377353 0.644686885458281 0.0
0.6435962868630796 0.7139205107269279 0.0
0.3541603945295475 0.6083266947287502 0.0
0.6381293107031111 0.2969749241621514 0.0
0.7033184070609535 0.6390130951465713 0.0
0.2365527442584948 0.4117538692896706 0.0
0.7538888166046027 0.2890016099317594 0.0
0.7108528717570168 0.7535478998948462 0.0
0.412428250006682 0.2451687953606375 0.0
0.3646049217394279 0.291369123885017 0.0
0.2997666023716281 0.3650313382879617 0.0
0.703282664384316 0.3560855151264761 0.0
0.358138582971924 0.7055356210530691 0.0
0.9402343666375695 0.6245829212181908 0.0
0.6754170787829508 0.9402343666380462 0.0
0.3245829211491601 0.940234366681378 0.0
0.3754170788557261 0.05976563334184509 0.0
0.6245829212382927 0.05976563334993901 0.0
0.05976563334976909 0.6754170787621089 0.0
0.9402343666753659 0.3245829212273756 0.0
0.05976563333581809 0.3754170787494793 0.0
0.6039102987483714 0.3686712308599859 0.0
0.6012930499303716 0.6517346089211749 0.0
0.2864297804870796 0.2405172437802475 0.0
0.4136086917315461 0.7616115504825639 0.0
0.2404795313617054 0.2864674927196282 0.0
0.758353287519132 0.4143267069527965 0.0
0.2830927819934522 0.761721308423855 0.0
0.2383775627313655 0.7168147508404688 0.0
0.7194341630926276 0.2412202997664903 0.0
0.7588080497214451 0.7196207455854151 0.0
0.5781661925444088 0.5462409467938331 0.0
0.5425156010469789 0.4175588442268487 0.0
0.2838157140155749 0.5421456515675847 0.0
0.5416674579335911 0.7178559517551015 0.0
0.4572520847679629 0.4146290290264605 0.0
0.4514650015977484 0.7124530617828471 0.0
0.2825175937747805 0.4632535898271452 0.0
0.419560766274629 0.545841732107458 0.0
0.5417004983287753 0.2884467063260733 0.0
0.7105882437563859 0.5409816789747722 0.0
[...]
<PointData Scalars="solution">
<DataArray type="Float64" Name="Real part" format="ascii">
0.20255535401588504
0.47908081402477987
0.5596252418273677
0.30131746075971255
0.3213502833297337
0.27203465980091396
0.28750451467053667
0.34425732107404955
0.43659433703640654
0.3794360245008124
0.4001169084532521
0.46502779407732053
0.49226496839223555
0.4625695728116331
0.5038191589398157
0.5478283401194032
0.6531667292594808
0.5701487384487715
0.5901385741520213
0.6754026894789833
0.7723288499358815
0.701043071953075
0.741939205297677
0.8087021301988678
0.7898780945720559
0.7763022095392859
0.8376504421000032
0.8703302752889557
0.9185912046904059
0.8782001206953326
0.835891229993746
0.8658113528737101
1.0334818308099427
1.0150455097904298
1.0060017046576808
0.9894598003790231
1.0244888554952754
1.0664588053663167
1.0874315787557005
1.033549607994248
0.29041498251195935
0.27043501643964996
0.3167178244838066
0.3413657776791714
0.40081114430772125
0.378282220111872
0.43798948204201693
0.46122133993477926
0.4683490179314263
0.4756413546397285
0.5348920913758538
0.20869154807681226
0.23479560835206498
0.2752915549109369
0.33705061849625734
0.39780931154364124
0.442561537006246
0.48455588563514523
0.5187391834961043
0.4997021301805629
0.6063695865156592
0.5658855169387828
0.6362442390330755
0.6827941249910902
0.7244038954053169
0.7009102060830438
0.7783496388722003
0.8009375896930202
0.7649774303070556
0.792797737714297
0.5073236656981075
0.5517543730870517
0.5700739959664086
0.5908947834734392
0.6259744746695489
0.6263395722725993
0.6271427551114985
0.636229703511765
0.5925850757382727
0.8299659272582628
0.9064435621586963
0.8433358080749868
0.8433391996742388
0.8999523788841086
1.0312596337831488
1.0007918604682766
0.9836514295047382
1.0144973799782349
1.044473613888349
0.5890507235284116
0.6191574158907786
0.5935881848384948
0.5482939070354901
0.5153624887368986
0.4503549786318027
0.3946612123608564
0.3530873609340081
0.31631354708791315
1.0542078969823756
1.0217312228166364
0.30785674492089204
0.31569664481648857
0.306512598095114
0.2884892302933535
0.274907109210278
0.25302223963076703
0.22939540728688831
0.21515211511747187
0.2042161092137971
0.5269685606399607
0.8636121776622926
1.085320255961891
0.3788960758927965
0.5907082149407674
0.45032769798856703
0.6535859416119658
0.32933834313331073
0.2683767124769123
0.5501498376790424
0.3400042688746289
0.48548963235195164
0.6691859371630462
0.6568640400570133
0.7272178523431055
0.494870603548894
0.4370831931184903
0.6622571361564126
0.5704377426282496
0.5599376824144898
0.43785314275447723
0.6657306785790247
0.6342419257060505
0.32330810645629665
0.373714527521441
0.5856182299464697
0.6779358065284763
0.4015535337086634
0.49092266048589195
0.703441407194049
0.7414055072132071
0.5168622157003566
0.48637475634715116
0.5618801722776084
0.725809428098396
0.5509322255808796
0.689433335570627
0.6418443400166243
0.4438953582520902
0.37390166273839415
0.3321957881885666
0.6577576542325394
0.7620226780483156
0.4454102484955791
0.6309014356843369
0.5449545838838119
0.7267550525406181
0.4991560071608815
0.41278690773520377
0.6860850729166014
0.6262647407609838
0.567185334665392
0.6747479020107706
0.4261035798625052
0.6442037380502666
0.26987278679479454
0.5553615674746188
0.38743676011404454
0.262867456026266
0.21142488992534128
0.4413075274700642
0.21975124950837954
0.22962148791169473
0.6536439572451236
0.3232662283672817
0.5408977527788609
0.5905403315721259
0.37739267200340204
0.34096831381611276
0.29680445134809513
0.3252047405277446
0.5435543971181636
0.6590642407600503
0.6429988867500591
0.6504021224834503
0.5730071771504687
0.6439874626053576
0.6855005748032198
0.5128104361367063
0.3357095209424152
0.2919570862488224
0.6294077715714121
0.37454320335480223
0.7350454984486315
0.5481762526528188
0.702387345227006
0.7993155099235308
0.31546530674903844
0.4045027033388108
0.5670834238049313
0.3924188050515654
0.7069841048632978
0.4783958283276267
0.7573838003082092
0.7824628884891878
0.6020674816266969
0.6180191028399532
0.5306848420716122
0.29731567987653323
0.5251534634803625
0.3684081063316573
0.6849519127573294
0.4041922526391619
0.4500403504034948
0.7412167237024047
0.7597412330366324
0.43609471141380723
0.4110869046340491
0.5082864541229105
0.7850225114240155
0.30027086800814234
0.25983983191346827
0.5526210721033536
0.7254094910844107
0.6112433727876053
0.33871025639047114
0.6604821998512157
0.7776712210832044
0.5245941576434261
0.5861081752246118
0.8070650200293668
0.646433116766874
0.41730110097605005
0.6756857672556269
0.4545154865751501
0.5747551645339954
0.6955594134211719
0.3592182769437055
0.716762232630093
0.8107781287344717
0.45791333076198815
0.38706820055894425
0.35410828000547667
0.6339292601031149
0.47900287662793634
0.6438124781870577
0.6003743824072346
0.4147810125855925
0.32622205802297316
0.4649657640069987
0.3083560768031725
0.5894897215094415
0.25016238978554084
0.5760339361546963
0.6341878851712787
0.3327480148040262
0.6014474811244092
0.31485842212444654
0.7745174394586735
0.4761472345504165
0.4424768395300904
0.7061152944659297
0.8507843855884929
0.6914357525952777
0.627956511152716
0.427590507320476
0.7009546920816776
0.5598636244875232
0.6222597901880406
0.4092089170932543
0.5675012212807753
0.5705368925016479
0.7854013002411093
0.49335285248344823
0.6870255011278694
0.40355214345519275
0.7360745635757225
0.6675002247955996
0.6681719267894706
0.43978275758478214
0.550760659585013
0.6997190733438539
0.565884317894562
0.6796579377844487
0.6159410837227552
0.610822769686254
0.5406726288075994
0.6753684710104562
0.4463287586181679
0.6251450509853673
0.4271810535535451
0.3495209416740893
0.6602832724874557
0.24399300060533347
0.6268846219110865
0.29801836896427686
0.3089705845179269
0.5130776585776387
0.46523047552750296
0.5974365782706265
0.6737630242451527
0.6267342760496688
0.49443661592920457
0.5472442135983545
0.5439446318862367
0.4633686945245114
0.6453160339642207
0.46206720945220353
0.4022615013433546
0.4965331315353881
0.5965173283507862
0.3115449776220287
0.20375327232758378
0.50718406919524
0.7973444004192904
0.4164110236066139
0.383860892853209
0.5053334516615237
0.6511288206982218
0.6915300465291616
0.5260852551352153
0.3295573272898596
0.35156463561585266
0.7228474789581888
0.31584632614379604
0.2759477366727439
0.23752056607280217
0.5021999391696653
0.7013057772089444
0.401236498062204
0.3818681296983564
0.6703743347983436
0.42907273605018953
0.6836965658333067
0.2502228736618723
0.2458962425071966
0.7908356741202152
0.46182467431978425
0.7921431306266904
0.3345878110765979
0.6685201962526423
0.38529367109020707
0.7985335855183653
0.8140152854132053
0.6261061084830528
0.6685307550933289
0.8333075530476872
0.8057939737367269
0.6049682270270155
0.7281026514946674
0.41954516862042707
0.6546476428093313
0.3321166699290564
0.5738861195702519
0.4134439721429087
0.7564737147006168
0.457677273541447
0.4798539638977617
0.844066475316735
0.8431295879057487
0.5719523911913102
0.7379416494064968
0.5679541007627392
0.4621520939017206
0.41492351264272037
0.41198461647488116
0.3479994570747038
0.6525610334094899
0.5127273884674797
0.5955440830991877
0.30590202550587436
0.36479538008698104
0.5872497907825989
0.3845106705552575
0.6966244708412339
0.7070813969602221
0.7638473994113698
0.49986920990747413
0.5890503612035537
0.3213398172316452
0.2872221584227016
0.7052189778088158
0.38215360597648906
0.6266474268777692
0.8204543185267088
0.7441196640548632
0.8849342647054502
0.5715998534530474
0.8202308559363375
0.4317277222415015
0.6477865232769783
0.7445052823374386
0.8752803005756501
0.4194632517481976
0.48881877929869927
0.32827289856502045
0.4806329122652691
0.6034787727071756
0.56329258043205
0.47024962991985814
0.29510171595176893
0.3439350801186418
0.5724119607988939
0.4325986514229367
0.3465524108008554
0.24260383343872466
0.21983881184624934
0.22382285064928123
0.5800695060189048
0.6985174868409229
0.6880697514109692
0.7035479880769204
0.6128651876921232
0.37935843681232523
0.5656937120915704
0.6977059335200457
0.397810707564915
0.6927991136737575
0.7134408243095783
0.6475782773864913
0.42362625356636074
0.7350457204249334
0.7187008406665655
0.4576798283338153
0.6633518765786639
0.391207491999097
0.5583966943845683
0.6818685020623959
0.7808629522960299
0.625250559737658
0.652883118224169
0.34660793735882445
0.3083960349438413
0.5242306688522669
0.5965356448835164
0.8547432297216072
0.6618693300351134
0.6742788350992514
0.5430500301383613
0.7242888710197632
0.5842906414390807
0.6371442578504077
0.43581806202424866
0.7167184927780601
0.6013659569928029
0.3514605535495199
0.4658120752014382
0.6348899057673539
0.600499947714725
0.8521176324956103
0.4062268913457443
0.47945102077343127
0.7613363843425919
0.8532217553049614
0.4332803900844357
0.49098373836674214
0.3281274430333971
0.40968475788061476
0.5772152088857934
0.7730660775941
0.579149356889022
0.4309957103304836
0.6497096182230557
0.6988877977594187
0.7525304000049854
0.600080576662295
0.5902041270939703
0.6157590567097719
0.6325022051513378
0.8850875247069414
0.28846039387817574
0.35200898819763543
0.5723728555469185
0.36441310355880396
0.6910597323937268
0.49532893972673536
0.6941683837947893
0.7557342793710713
0.5233921730319114
0.2921134721313079
0.5411569537012202
0.36467110310751405
0.37841648353676904
0.6801457704008609
0.4651633577396971
0.7494056419481601
0.7139237581673853
0.6621629768612489
0.5698627545810602
0.6398998247729295
0.8340492769911458
0.42542981279792397
0.6396973886673382
0.33209036826016314
0.30485488097739405
0.7131126706501061
0.8836977905090108
0.627907332535063
0.6753416839109512
0.6638632424725299
0.658648502866233
0.40177890200731137
0.38605695780065347
0.45458757827118285
0.6618456957389067
0.6942412866833152
0.6392300460414664
0.46836820490985936
0.4658651376796971
0.3269605327563495
0.5516975726835985
0.40473204665471224
0.7518242925876867
0.8425294737751848
0.8467806375281923
0.6360405747197069
0.7205136642375091
0.4163361282743223
0.2670036082221869
0.5045274479848725
0.33260909600858246
0.6356959401366226
0.6962169743012422
0.6520033266392617
0.34609841652251727
0.4432085392520587
0.3871784128088195
0.5216503573715167
0.6248683817066151
0.9104299296207643
0.47750118653785
0.8039574076302713
0.9309173826951344
0.46893188438086514
0.5103918990691789
0.4411308226403571
0.3885818320239048
0.42310894194104826
0.7144825560693696
0.6957719486561238
0.6433584937864492
0.4881372130454257
0.3462090910130912
0.28248355305465117
0.4555533483766049
0.47932904333245796
0.4280954759882238
0.6707988878806834
0.4815413926997843
0.6885958358344442
0.5402060515163577
0.3747281344581198
0.27702702878543
0.32497333543357215
0.7202126926879493
0.6075278765346045
0.3569241433750932
0.5361770565155256
0.6844388526467423
0.7803084914613792
0.6162784552769848
0.9082932777696099
</DataArray>
<DataArray type="Float64" Name="Imag part" format="ascii">
0.0
0.0
0.0
0.0
0.0
0.0
0.0
0.0
0.0
0.0
0.0
0.0
0.0
0.0
0.0
0.0
0.0
0.0
0.0
0.0
0.0
0.0
0.0
0.0
0.0
0.0
0.0
0.0
0.0
0.0
0.0
0.0
0.0
0.0
0.0
0.0
0.0
0.0
0.0
0.0
0.0
0.0
0.0
0.0
0.0
0.0
0.0
0.0
0.0
0.0
0.0
0.0
0.0
0.0
0.0
0.0
0.0
0.0
0.0
0.0
0.0
0.0
0.0
0.0
0.0
0.0
0.0
0.0
0.0
0.0
0.0
0.0
0.0
0.0
0.0
0.0
0.0
0.0
0.0
0.0
0.0
0.0
0.0
0.0
0.0
0.0
0.0
0.0
0.0
0.0
0.0
0.0
0.0
0.0
0.0
0.0
0.0
0.0
0.0
0.0
0.0
0.0
0.0
0.0
0.0
0.0
0.0
0.0
0.0
0.0
0.0
0.0
0.0
0.0
0.0
0.0
0.0
0.0
0.0
0.0
0.0
0.0
0.0
0.0
0.0
0.0
0.0
0.0
0.0
0.0
0.0
0.0
0.0
0.0
0.0
0.0
0.0
0.0
0.0
0.0
0.0
0.0
0.0
0.0
0.0
0.0
0.0
0.0
0.0
0.0
0.0
0.0
0.0
0.0
0.0
0.0
0.0
0.0
0.0
0.0
0.0
0.0
0.0
0.0
0.0
0.0
0.0
0.0
0.0
0.0
0.0
0.0
0.0
0.0
0.0
0.0
0.0
0.0
0.0
0.0
0.0
0.0
0.0
0.0
0.0
0.0
0.0
0.0
0.0
0.0
0.0
0.0
0.0
0.0
0.0
0.0
0.0
0.0
0.0
0.0
0.0
0.0
0.0
0.0
0.0
0.0
0.0
0.0
0.0
0.0
0.0
0.0
0.0
0.0
0.0
0.0
0.0
0.0
0.0
0.0
0.0
0.0
0.0
0.0
0.0
0.0
0.0
0.0
0.0
0.0
0.0
0.0
0.0
0.0
0.0
0.0
0.0
0.0
0.0
0.0
0.0
0.0
0.0
0.0
0.0
0.0
0.0
0.0
0.0
0.0
0.0
0.0
0.0
0.0
0.0
0.0
0.0
0.0
0.0
0.0
0.0
0.0
0.0
0.0
0.0
0.0
0.0
0.0
0.0
0.0
0.0
0.0
0.0
0.0
0.0
0.0
0.0
0.0
0.0
0.0
0.0
0.0
0.0
0.0
0.0
0.0
0.0
0.0
0.0
0.0
0.0
0.0
0.0
0.0
0.0
0.0
0.0
0.0
0.0
0.0
0.0
0.0
0.0
0.0
0.0
0.0
0.0
0.0
0.0
0.0
0.0
0.0
0.0
0.0
0.0
0.0
0.0
0.0
0.0
0.0
0.0
0.0
0.0
0.0
0.0
0.0
0.0
0.0
0.0
0.0
0.0
0.0
0.0
0.0
0.0
0.0
0.0
0.0
0.0
0.0
0.0
0.0
0.0
0.0
0.0
0.0
0.0
0.0
0.0
0.0
0.0
0.0
0.0
0.0
0.0
0.0
0.0
0.0
0.0
0.0
0.0
0.0
0.0
0.0
0.0
0.0
0.0
0.0
0.0
0.0
0.0
0.0
0.0
0.0
0.0
0.0
0.0
0.0
0.0
0.0
0.0
0.0
0.0
0.0
0.0
0.0
0.0
0.0
0.0
0.0
0.0
0.0
0.0
0.0
0.0
0.0
0.0
0.0
0.0
0.0
0.0
0.0
0.0
0.0
0.0
0.0
0.0
0.0
0.0
0.0
0.0
0.0
0.0
0.0
0.0
0.0
0.0
0.0
0.0
0.0
0.0
0.0
0.0
0.0
0.0
0.0
0.0
0.0
0.0
0.0
0.0
0.0
0.0
0.0
0.0
0.0
0.0
0.0
0.0
0.0
0.0
0.0
0.0
0.0
0.0
0.0
0.0
0.0
0.0
0.0
0.0
0.0
0.0
0.0
0.0
0.0
0.0
0.0
0.0
0.0
0.0
0.0
0.0
0.0
0.0
0.0
0.0
0.0
0.0
0.0
0.0
0.0
0.0
0.0
0.0
0.0
0.0
0.0
0.0
0.0
0.0
0.0
0.0
0.0
0.0
0.0
0.0
0.0
0.0
0.0
0.0
0.0
0.0
0.0
0.0
0.0
0.0
0.0
0.0
0.0
0.0
0.0
0.0
0.0
0.0
0.0
0.0
0.0
0.0
0.0
0.0
0.0
0.0
0.0
0.0
0.0
0.0
0.0
0.0
0.0
0.0
0.0
0.0
0.0
0.0
0.0
0.0
0.0
0.0
0.0
0.0
0.0
0.0
0.0
0.0
0.0
0.0
0.0
0.0
0.0
0.0
0.0
0.0
0.0
0.0
0.0
0.0
0.0
0.0
0.0
0.0
0.0
0.0
0.0
0.0
0.0
0.0
0.0
0.0
0.0
0.0
</DataArray>
</PointData>
</Piece>
</UnstructuredGrid>
</VTKFile>
