<VTKFile type="UnstructuredGrid" version="1.0" byte_order="LittleEndian" header_type="UInt64">
<UnstructuredGrid>
<Piece NumberOfPoints="561" NumberOfCells="1026">
<Points>
<DataArray NumberOfComponents="3" type="Float64">
0.0 0.0 0.0
1.0 0.0 0.0
1.0 1.0 0.0
0.0 1.0 0.0
0.2 0.25 0.0
0.15 0.2 0.0
0.2 0.15 0.0
0.25 0.2 0.0
0.2 0.55 0.0
0.15 0.5 0.0
0.2 0.45 0.0
0.25 0.5 0.0
0.2 0.8500000000000001 0.0
0.15 0.8 0.0
0.2 0.75 0.0
0.25 0.8 0.0
0.5 0.25 0.0
0.45 0.2 0.0
0.5 0.15 0.0
0.55 0.2 0.0
0.5 0.55 0.0
0.45 0.5 0.0
0.5 0.45 0.0
0.55 0.5 0.0
0.5 0.8500000000000001 0.0
0.45 0.8 0.0
0.5 0.75 0.0
0.55 0.8 0.0
0.8 0.25 0.0
0.75 0.2 0.0
0.8 0.15 0.0
0.8500000000000001 0.2 0.0
0.8 0.55 0.0
0.75 0.5 0.0
0.8 0.45 0.0
0.8500000000000001 0.5 0.0
0.8 0.8500000000000001 0.0
0.75 0.8 0.0
0.8 0.75 0.0
0.8500000000000001 0.8 0.0
0.1646446608727939 0.2353553389914487 0.0
0.1646446610085513 0.1646446608727939 0.0
0.2353553391272061 0.1646446610085513 0.0
0.2353553389914487 0.2353553391272061 0.0
0.1646446608926911 0.5353553390113459 0.0
0.1646446610424293 0.464644660838916 0.0
0.2353553391217903 0.4646446610031355 0.0
0.2353553389872769 0.5353553391313779 0.0
0.1646446608926911 0.835355339011346 0.0
0.1646446610127232 0.7646446608686222 0.0
0.2353553391073089 0.7646446609886541 0.0
0.09999999999981467 0.0 0.0
0.1999999999995579 0.0 0.0
0.2999999999992664 0.0 0.0
0.3999999999989749 0.0 0.0
0.4999999999986943 0.0 0.0
0.5999999999989468 0.0 0.0
0.69999999999921 0.0 0.0
0.7999999999994734 0.0 0.0
0.8999999999997368 0.0 0.0
0.464644660838916 0.2353553389575707 0.0
0.4646446610031355 0.1646446608782098 0.0
0.5353553391313779 0.1646446610127232 0.0
0.5353553390113459 0.2353553391073089 0.0
0.4646446609191431 0.535355339037798 0.0
0.4646446610370135 0.4646446608443318 0.0
0.5353553391259621 0.4646446610073074 0.0
0.5353553390335396 0.5353553390851152 0.0
0.4646446609191431 0.835355339037798 0.0
0.4646446610073074 0.7646446608740379 0.0
1.0 0.09999999999981467 0.0
1.0 0.1999999999995579 0.0
1.0 0.2999999999992664 0.0
1.0 0.3999999999989749 0.0
1.0 0.4999999999986943 0.0
1.0 0.5999999999989468 0.0
1.0 0.69999999999921 0.0
1.0 0.7999999999994734 0.0
1.0 0.8999999999997368 0.0
0.5353553390335396 0.8353553390851153 0.0
0.7646446608686222 0.2353553389872769 0.0
0.7646446609886541 0.1646446608926911 0.0
0.8353553391313779 0.1646446610127232 0.0
0.835355339011346 0.2353553391073089 0.0
0.7646446609148848 0.5353553390335396 0.0
0.7646446609622021 0.4646446609191431 0.0
0.8353553391259622 0.4646446610073074 0.0
0.8353553390335396 0.5353553390851152 0.0
0.7646446609148848 0.8353553390335396 0.0
0.8999999999995836 1.0 0.0
0.7999999999999998 1.0 0.0
0.7000000000006934 1.0 0.0
0.6000000000013869 1.0 0.0
0.5000000000020587 1.0 0.0
0.4000000000016644 1.0 0.0
0.3000000000012483 1.0 0.0
0.2000000000008322 1.0 0.0
0.100000000000416 1.0 0.0
0.8353553390851153 0.7646446609664604 0.0
0.8353553390335396 0.8353553390851153 0.0
0.0 0.8999999999995836 0.0
0.0 0.7999999999999998 0.0
0.0 0.7000000000006934 0.0
0.0 0.6000000000013869 0.0
0.0 0.5000000000020587 0.0
0.0 0.4000000000016644 0.0
0.0 0.3000000000012483 0.0
0.0 0.2000000000008322 0.0
0.0 0.100000000000416 0.0
0.2353553389872769 0.8353553391313779 0.0
0.5353553390851152 0.7646446609664604 0.0
0.7646446609664604 0.7646446609148848 0.0
0.3433898395275172 0.3506711751366992 0.0
0.6555223459501304 0.3454869675941158 0.0
0.345221666793714 0.6526563204031345 0.0
0.6500000000000001 0.6500000000000001 0.0
0.3376521968691558 0.1382043895083632 0.0
0.1382043895133763 0.3376521967853719 0.0
0.662347803202637 0.1382043895520366 0.0
0.1382043895520382 0.6376521967973626 0.0
0.3623478031405708 0.861795610525198 0.0
0.8617956104989657 0.362347803199541 0.0
0.6376521968143625 0.8617956104085769 0.0
0.8617956104085793 0.6623478031856377 0.0
0.4577442078074788 0.351070261471894 0.0
0.35 0.4583333333333333 0.0
0.6459020038819421 0.4617868175191547 0.0
0.4583333333333332 0.65 0.0
0.5530890607669136 0.3613201225761349 0.0
0.3273703710454821 0.5577318018698613 0.0
0.6312499999999998 0.5541666666666667 0.0
0.5541666666666664 0.6687499999999998 0.0
0.2439339827500904 0.3534009741251356 0.0
0.3534009741333171 0.2439339827555447 0.0
0.645542633255165 0.2494789938936431 0.0
0.7540219891571036 0.3491277921959138 0.0
0.249952272779098 0.6530833888937803 0.0
0.3484148065846917 0.7545879643268294 0.0
0.6531222076166924 0.7497400369911574 0.0
0.7505210060732426 0.645542633241858 0.0
0.4039637890308081 0.5862884104434813 0.0
0.412084139813457 0.4119563048845528 0.0
0.5880044795246634 0.2926772259834077 0.0
0.7067067285638935 0.5871080864771689 0.0
0.4090296395354618 0.7151635620813825 0.0
0.710197217617496 0.4092669477118412 0.0
0.5705712315775688 0.6017363862836691 0.0
0.4129062502019396 0.2900031303949859 0.0
0.2875759077313267 0.4120913242586335 0.0
0.2857822245280523 0.286403119234693 0.0
0.7121827393464313 0.2851331787597786 0.0
0.7150652678408427 0.7134888166540321 0.0
0.2854198242405634 0.7144204535284502 0.0
0.596355661119427 0.4317463272007821 0.0
0.5195729035608143 0.3137550414159756 0.0
0.6814429780261859 0.5177727375312514 0.0
0.3826688547938011 0.5174013060277558 0.0
0.2742095802077177 0.5888719740076885 0.0
0.5881583496321303 0.7258694804636643 0.0
0.512916648925923 0.6130876559396792 0.0
0.4956876225771484 0.3916916101055488 0.0
0.6091203914685013 0.4955611555134115 0.0
0.3081086880202347 0.4951904105963052 0.0
0.4999999999999998 0.6913194444444444 0.0
0.05985636373714733 0.4420530910850028 0.0
0.9358864235191767 0.1421319380791616 0.0
0.2579469087763238 0.940143636305655 0.0
0.2572591731173738 0.07045208466228416 0.0
0.06411357656219142 0.1421319379513652 0.0
0.5579469089030646 0.05985636373221363 0.0
0.1421319380781085 0.06411357648234975 0.0
0.07045208466695235 0.2572591730084375 0.0
0.9295479153439864 0.4427408269776643 0.0
0.05985636373118473 0.7420530910991101 0.0
0.857868062047356 0.06411357656456783 0.0
0.9401436362836448 0.2579469088865591 0.0
0.4420530912261119 0.05985636371218914 0.0
0.1421319379601523 0.9358864234555444 0.0
0.07045208468232296 0.5572591730179106 0.0
0.06411357648701377 0.8578680619420427 0.0
0.7427408269774269 0.07045208468143335 0.0
0.9401436362796813 0.5579469088793961 0.0
0.7420530911272205 0.9401436362825517 0.0
0.9358864234788886 0.8578680620215167 0.0
0.557259173049598 0.9295479153066358 0.0
0.8578680619732905 0.9358864235092152 0.0
0.9295479153065642 0.7427408269514637 0.0
0.4427408269129883 0.9295479153609203 0.0
0.3143918185721838 0.19209726506541 0.0
0.1920972650952285 0.3143918185536934 0.0
0.685543141712359 0.1913525648670957 0.0
0.1935957104113677 0.6144796997410339 0.0
0.809504244004653 0.3856396610029235 0.0
0.3856396609623359 0.8095042440251847 0.0
0.6144796997484514 0.8064042895564912 0.0
0.8086474350951405 0.6855431417113358 0.0
0.1892629235394513 0.3860472153512443 0.0
0.3860472153840332 0.1892629235625572 0.0
0.6139842252634227 0.1894054608058127 0.0
0.1892545645570567 0.6860837355980296 0.0
0.8107370764580965 0.3139527846426451 0.0
0.3139162643942123 0.8107454354581183 0.0
0.6860472153811453 0.8107370764108126 0.0
0.8105945391657486 0.6139842252475645 0.0
0.4611414873717721 0.5920261295844056 0.0
0.64588989174686 0.4045281252147507 0.0
0.4077563014273697 0.4649729498043385 0.0
0.1352479275248563 0.4080729418485258 0.0
0.5919270581242425 0.1352479275322719 0.0
0.1352479275322713 0.7080729418757574 0.0
0.8647520724968161 0.2919270581077186 0.0
0.4080729420117861 0.1352479275090695 0.0
0.291927057990262 0.8647520725184488 0.0
0.708072941916764 0.8647520724650545 0.0
0.8647520724650537 0.5919270580832346 0.0
0.4023937232125269 0.3536208203306642 0.0
0.3541738588628671 0.4031000864928675 0.0
0.4048342686835711 0.6447434006119712 0.0
0.71316561210788 0.4653396854661837 0.0
0.2874850431956504 0.1351923300651653 0.0
0.1351923301412642 0.287485043121117 0.0
0.4125149568291094 0.8648076699653156 0.0
0.8648076698863019 0.4125149568736285 0.0
0.7125149568579259 0.1351923301736325 0.0
0.1351923301736628 0.5874850431419016 0.0
0.5874850431667454 0.8648076697977991 0.0
0.8648076697977938 0.7125149568332956 0.0
0.4669565156295485 0.2870570218847242 0.0
0.590687671546755 0.2407081407199352 0.0
0.7592918592591411 0.5906876715490426 0.0
0.628314831649785 0.604448761006592 0.0
0.2943959469377353 0.644686885458281 0.0
0.6435962868630796 0.7139205107269279 0.0
0.3541603945295475 0.6083266947287502 0.0
0.6381293107031111 0.2969749241621514 0.0
0.7033184070609535 0.6390130951465713 0.0
0.2365527442584948 0.4117538692896706 0.0
0.7538888166046027 0.2890016099317594 0.0
0.7108528717570168 0.7535478998948462 0.0
0.412428250006682 0.2451687953606375 0.0
0.3646049217394279 0.291369123885017 0.0
0.2997666023716281 0.3650313382879617 0.0
0.703282664384316 0.3560855151264761 0.0
0.358138582971924 0.7055356210530691 0.0
0.9402343666375695 0.6245829212181908 0.0
0.6754170787829508 0.9402343666380462 0.0
0.3245829211491601 0.940234366681378 0.0
0.3754170788557261 0.05976563334184509 0.0
0.6245829212382927 0.05976563334993901 0.0
0.05976563334976909 0.6754170787621089 0.0
0.9402343666753659 0.3245829212273756 0.0
0.05976563333581809 0.3754170787494793 0.0
0.6039102987483714 0.3686712308599859 0.0
0.6012930499303716 0.6517346089211749 0.0
0.2864297804870796 0.2405172437802475 0.0
0.4136086917315461 0.7616115504825639 0.0
0.2404795313617054 0.2864674927196282 0.0
0.758353287519132 0.4143267069527965 0.0
0.2830927819934522 0.761721308423855 0.0
0.2383775627313655 0.7168147508404688 0.0
0.7194341630926276 0.2412202997664903 0.0
0.7588080497214451 0.7196207455854151 0.0
0.5781661925444088 0.5462409467938331 0.0
0.5425156010469789 0.4175588442268487 0.0
0.2838157140155749 0.5421456515675847 0.0
0.5416674579335911 0.7178559517551015 0.0
0.4572520847679629 0.4146290290264605 0.0
0.4514650015977484 0.7124530617828471 0.0
0.2825175937747805 0.4632535898271452 0.0
0.419560766274629 0.545841732107458 0.0
0.5417004983287753 0.2884467063260733 0.0
0.7105882437563859 0.5409816789747722 0.0
[...]
<PointData Scalars="solution">
<DataArray type="Float64" Name="Real part" format="ascii">
0.20257557933268727
0.4791148914841966
0.5596626644825234
0.3013430938752686
0.3213743334737112
0.2720565498791189
0.28752717566401165
0.34428234558265775
0.4366214659731192
0.37946086846317356
0.4001424138045595
0.4650559598578778
0.4922930946803631
0.46259629822427023
0.5038472082363008
0.5478581631574755
0.6531985513050433
0.5701774855636527
0.5901686210010169
0.6754356217189312
0.7723635506880451
0.7010749462950943
0.7419724892950927
0.8087381012239133
0.78991286672697
0.7763354282670046
0.8376856813713773
0.870367092417068
0.9186281827310843
0.8782356267904055
0.83592638498712
0.8658476410550027
1.0335211584446038
1.0150838744928934
1.0060399637202446
0.9894987421611425
1.024527695408054
1.066497769385388
1.087471247090986
1.0335889647851302
0.2904377378388315
0.2704568439526145
0.31674180403722296
0.341390790328663
0.40083695129084085
0.378306877276847
0.4380165537388044
0.46124949937154874
0.46837615464061083
0.4756683720059416
0.5349213545008543
0.20871226345535002
0.2348176917380072
0.2753156992662616
0.33707724947586215
0.3978384515046839
0.44259287978035405
0.48458884949088105
0.51877318468977
0.49973634416132756
0.6063995965674662
0.5659143311273291
0.6362759437579468
0.6828271549497085
0.7244369298239907
0.7009422418019209
0.7783845808905482
0.8009734778573928
0.7650110799757508
0.7928316341671289
0.5073582554309239
0.5517899568245122
0.5701104830395535
0.5909320814586418
0.6260125638833741
0.6263780364310265
0.6271813121142684
0.6362681484584286
0.592622921563162
0.8300020346680694
0.906479886027031
0.8433708959313331
0.8433748223643438
0.8999892779007976
1.0312985280040456
1.0008300358362037
0.9836900339945276
1.0145366766802233
1.044512405640602
0.5890884041345432
0.6191951505608583
0.5936252157248478
0.5483295594739976
0.5153963886123846
0.45038666208113787
0.3946907560296954
0.35311498771070365
0.31633974270360665
1.0542475601830872
1.0217702778024915
0.30788247265265967
0.3157223163469239
0.3065379657420462
0.2885139074977607
0.2749309327453958
0.25304511199363305
0.22941725311950611
0.21517311216301666
0.20423656241995108
0.5269978362358565
0.8636486813860513
1.085359603887625
0.37892407785238025
0.5907437230616615
0.4503583993338922
0.6536234817558143
0.32936413793762637
0.2684000822690139
0.5501833392748225
0.3400304820790521
0.48552098647763303
0.6692234113865564
0.656901157107973
0.7272570251657594
0.49490179298331316
0.4371125793179697
0.6622937799433396
0.5704714373456522
0.5599714290563373
0.4378829223083567
0.6657677408154018
0.6342779559592029
0.3233337531070701
0.3737417470899989
0.5856527637951611
0.6779727883403927
0.401582093937546
0.4909538778189027
0.7034792600837277
0.7414443910167157
0.5168940902458741
0.4864052485004818
0.5619140854203649
0.7258477003566292
0.5509648318702308
0.6894703839453509
0.6418805385750024
0.44392465040672097
0.37392901377106197
0.33222183713804515
0.6577935938990003
0.762061363844664
0.44543996521282875
0.6309369394471138
0.5449871706644344
0.7267927090922262
0.49918676954131447
0.4128157265464161
0.6861219898281812
0.6262997431168984
0.5672179875070608
0.6747843612586637
0.4261324681515706
0.6442387041967829
0.26989626180224724
0.5553967062177437
0.38746559842632333
0.262890876569088
0.21144572472477183
0.4413382134348178
0.2197725514853368
0.22964323255490401
0.6536818779443953
0.3232919776459336
0.5409322143961982
0.5905766231654669
0.3774205260508744
0.3409951217565679
0.2968291086309713
0.3252307122007869
0.5435882380033961
0.6591027756354297
0.6430365264242547
0.650440444601942
0.573042447688004
0.6440254880124711
0.6855394294872612
0.5128433129857851
0.3357353707742734
0.29198127144322145
0.6294423352136889
0.374570368187456
0.7350832111286557
0.5482082925133812
0.7024246184933286
0.7993548788741527
0.31549008017340596
0.4045301437910723
0.567116861823092
0.3924462786572514
0.7070212627530552
0.4784264049229445
0.7574219740659468
0.7825021190665252
0.6021010247933921
0.6180550854862246
0.5307157074971358
0.2973396543262965
0.5251857574641852
0.36843465420443117
0.6849889053918132
0.40421972211133955
0.4500702985081599
0.7412547415610001
0.7597803455750946
0.4361243447080089
0.41111576414644757
0.5083186632488521
0.7850602085305072
0.300295503206139
0.259862659958837
0.5526535635648415
0.7254474736500275
0.6112775996954886
0.33873605251317124
0.6605186376187305
0.777710545909412
0.5246250564018166
0.5861418395076644
0.8071039739065851
0.6464702332092795
0.41733057718837396
0.6757234089665851
0.45454618157777693
0.5747899598308417
0.6955977079990658
0.35924442854292915
0.7167988155301589
0.8108168313319963
0.45794208591306595
0.387096165134045
0.35413534315504586
0.6339656372517136
0.4790341484661154
0.643851131728571
0.6004113082382715
0.41481118205921563
0.3262482020135719
0.4649977681759024
0.30838152583987083
0.5895265350758421
0.25018521201634153
0.5760687772524362
0.6342246725310378
0.33277376419807503
0.6014802436073586
0.31488349557544776
0.7745551328066627
0.4761772095877618
0.442505600748146
0.7061509928186919
0.8508236321201162
0.6914720989114078
0.6279907261742632
0.42761934247067196
0.7009907827400037
0.5598954057493218
0.622293539890594
0.4092368965808606
0.5675331887887877
0.5705699091343751
0.7854395248552442
0.49338391946533805
0.6870612660086965
0.4035799705881073
0.7361116137716927
0.6675379425297565
0.6682073980664632
0.43981291747199447
0.5507940476246573
0.6997567787664888
0.5659189851601591
0.679695953089738
0.6159762403961566
0.6108584729543993
0.5407054282278587
0.6754054212399667
0.44635843299237493
0.6251807781370962
0.42721075056984836
0.3495478792460713
0.6603199477609633
0.24401551641522082
0.6269220281853293
0.2980433293962242
0.3089959339358967
0.5131108099110133
0.465261962257303
0.5974729684114195
0.6738019150439988
0.6267705238415163
0.4944675617341528
0.5472771924021982
0.543977490002065
0.46339863090501926
0.645352736739482
0.46209740155438855
0.40228995278897084
0.4965649947568359
0.5965551424595831
0.31157095350824937
0.20377385361659325
0.5072185120514535
0.7973821079413872
0.4164399952310318
0.3838888988591501
0.5053633153762568
0.6511649503466231
0.6915671724575108
0.5261172264427086
0.32958341450183426
0.35159145302558203
0.7228856994322753
0.31587056528711566
0.2759710155226644
0.23754194898873163
0.5022305566466102
0.701342224451084
0.4012638147246755
0.3818945153577518
0.6704093873999423
0.429101348205298
0.6837322626943665
0.25024487978944204
0.24591807144368455
0.790874150457567
0.4618536171234615
0.7921820298982857
0.33461279971737
0.6685548314384416
0.3853201848194199
0.798572010051278
0.8140542214441309
0.6261398306582846
0.6685661186762524
0.8333468425052651
0.8058326142485228
0.6050034035462933
0.728141330068157
0.419574329564676
0.6546840672077425
0.33214134684891317
0.5739187749659903
0.4134712129844034
0.7565107726963337
0.4577053283826932
0.4798839068479009
0.844105761096993
0.8431680990118664
0.5719865842677258
0.7379802893216172
0.5679854370146346
0.4621826226334756
0.4149525708985326
0.41201286345554455
0.3480259164245421
0.6525977607234844
0.5127589135424023
0.5955782741015956
0.3059268430842255
0.3648221528870912
0.587283997672659
0.3845384107178134
0.6966617851204406
0.707119151091846
0.7638865968637553
0.4999005133556518
0.589084956290075
0.3213648421928796
0.2872457335530415
0.7052538459322178
0.3821802698060166
0.6266801798468511
0.8204924386487079
0.7441565183117811
0.8849738127166075
0.5716312461299398
0.8202688882141999
0.43175774515927
0.6478209797271903
0.7445415200789552
0.8753193572914423
0.419492051082168
0.4888503792256654
0.32829832432613576
0.4806631681895399
0.6035128514358213
0.563324489041885
0.4702790584560514
0.29512592169630125
0.34396114248090964
0.5724463414188969
0.4326281165421902
0.34657887847545804
0.2426261263551631
0.2198599143143792
0.22384414619704207
0.5801044574789569
0.6985556521495744
0.6881081039759478
0.7035867527946627
0.6129010663652702
0.37938627518352097
0.565727931129752
0.6977443694074047
0.3978391049473575
0.6928365225644137
0.7134781319660768
0.6476155575527069
0.42365472244337854
0.735082373514804
0.7187371243302
0.45771000011740065
0.6633892326104731
0.3912345296464566
0.5584308692402792
0.6819057396176913
0.7809021313917796
0.6252854233363759
0.6529166040521774
0.34663427828241217
0.3084210348061798
0.5242623996883664
0.5965689363865279
0.8547824516437583
0.6619043608055641
0.6743155406006202
0.5430820621366934
0.7243263709367866
0.5843234383871418
0.6371776468947764
0.4358466436196199
0.7167539038162358
0.6014013764058798
0.3514859571465086
0.4658403960708364
0.6349266065487084
0.6005332037415129
0.8521563610467564
0.4062550885275383
0.4794816840930984
0.7613733441421481
0.8532604272131148
0.4333083462427301
0.4910138850752416
0.3281529057508176
0.40971254539044155
0.5772491134631061
0.7731051658030238
0.5791828814026976
0.4310249859990072
0.6497452671174321
0.6989247943837821
0.7525686676869169
0.600114997304469
0.5902395641743607
0.6157906087409724
0.6325383042089086
0.8851255730867627
0.28848448219660705
0.35203535013942344
0.5724066759035997
0.36444004959084214
0.6910971733793266
0.4953602317746233
0.6942059268284223
0.7557735409352181
0.5234241737134152
0.29213750944886013
0.5411899943917777
0.36469785350411843
0.3784434353529509
0.6801829720044765
0.46519392048707325
0.749444829723461
0.713961587110445
0.6621967013253162
0.5698936606917131
0.6399326145928047
0.8340872730884675
0.42545912168480254
0.6397345129760672
0.33211579082958076
0.30487920313206957
0.7131478697998452
0.8837372671028596
0.627943617036489
0.6753777862755347
0.6638997921908654
0.6586848211304098
0.40180757847618204
0.38608514076898104
0.4546176153925395
0.6618828515488013
0.6942758350734702
0.6392621553624539
0.46839653155762195
0.46589454322160434
0.32698484675924805
0.5517293206650544
0.4047587750979283
0.7518611585710347
0.8425686453865251
0.8468190978447497
0.6360732550910528
0.7205509299517304
0.416365464252834
0.26702691207260115
0.5045600370034977
0.33263509481217224
0.6357330352149212
0.696255944268685
0.652040642401666
0.34612480386304073
0.4432390341935986
0.38720464761387846
0.5216795106531503
0.6249016396409519
0.9104690058108466
0.47753262232039123
0.8039940647020164
0.9309563915322421
0.4689623538971005
0.5104225614300398
0.4411604253211262
0.38860933454615515
0.4231384850117256
0.7145214511542991
0.6958097692582197
0.6433952410833447
0.4881688628552781
0.3462352135976035
0.2825072026182619
0.4555837814547807
0.4793601753858469
0.42812467910927143
0.6708367728853246
0.48157163723214313
0.6886336385576494
0.5402389873543221
0.3747559348121182
0.2770506152174846
0.32499884662821216
0.7202504509582519
0.6075620874828462
0.3569506865073238
0.5362090490474165
0.6844759072499781
0.7803478427598777
0.6163110678813445
0.9083317979337108
</DataArray>
<DataArray type="Float64" Name="Imag part" format="ascii">
0.0
0.0
0.0
0.0
0.0
0.0
0.0
0.0
0.0
0.0
0.0
0.0
0.0
0.0
0.0
0.0
0.0
0.0
0.0
0.0
0.0
0.0
0.0
0.0
0.0
0.0
0.0
0.0
0.0
0.0
0.0
0.0
0.0
0.0
0.0
0.0
0.0
0.0
0.0
0.0
0.0
0.0
0.0
0.0
0.0
0.0
0.0
0.0
0.0
0.0
0.0
0.0
0.0
0.0
0.0
0.0
0.0
0.0
0.0
0.0
0.0
0.0
0.0
0.0
0.0
0.0
0.0
0.0
0.0
0.0
0.0
0.0
0.0
0.0
0.0
0.0
0.0
0.0
0.0
0.0
0.0
0.0
0.0
0.0
0.0
0.0
0.0
0.0
0.0
0.0
0.0
0.0
0.0
0.0
0.0
0.0
0.0
0.0
0.0
0.0
0.0
0.0
0.0
0.0
0.0
0.0
0.0
0.0
0.0
0.0
0.0
0.0
0.0
0.0
0.0
0.0
0.0
0.0
0.0
0.0
0.0
0.0
0.0
0.0
0.0
0.0
0.0
0.0
0.0
0.0
0.0
0.0
0.0
0.0
0.0
0.0
0.0
0.0
0.0
0.0
0.0
0.0
0.0
0.0
0.0
0.0
0.0
0.0
0.0
0.0
0.0
0.0
0.0
0.0
0.0
0.0
0.0
0.0
0.0
0.0
0.0
0.0
0.0
0.0
0.0
0.0
0.0
0.0
0.0
0.0
0.0
0.0
0.0
0.0
0.0
0.0
0.0
0.0
0.0
0.0
0.0
0.0
0.0
0.0
0.0
0.0
0.0
0.0
0.0
0.0
0.0
0.0
0.0
0.0
0.0
0.0
0.0
0.0
0.0
0.0
0.0
0.0
0.0
0.0
0.0
0.0
0.0
0.0
0.0
0.0
0.0
0.0
0.0
0.0
0.0
0.0
0.0
0.0
0.0
0.0
0.0
0.0
0.0
0.0
0.0
0.0
0.0
0.0
0.0
0.0
0.0
0.0
0.0
0.0
0.0
0.0
0.0
0.0
0.0
0.0
0.0
0.0
0.0
0.0
0.0
0.0
0.0
0.0
0.0
0.0
0.0
0.0
0.0
0.0
0.0
0.0
0.0
0.0
0.0
0.0
0.0
0.0
0.0
0.0
0.0
0.0
0.0
0.0
0.0
0.0
0.0
0.0
0.0
0.0
0.0
0.0
0.0
0.0
0.0
0.0
0.0
0.0
0.0
0.0
0.0
0.0
0.0
0.0
0.0
0.0
0.0
0.0
0.0
0.0
0.0
0.0
0.0
0.0
0.0
0.0
0.0
0.0
0.0
0.0
0.0
0.0
0.0
0.0
0.0
0.0
0.0
0.0
0.0
0.0
0.0
0.0
0.0
0.0
0.0
0.0
0.0
0.0
0.0
0.0
0.0
0.0
0.0
0.0
0.0
0.0
0.0
0.0
0.0
0.0
0.0
0.0
0.0
0.0
0.0
0.0
0.0
0.0
0.0
0.0
0.0
0.0
0.0
0.0
0.0
0.0
0.0
0.0
0.0
0.0
0.0
0.0
0.0
0.0
0.0
0.0
0.0
0.0
0.0
0.0
0.0
0.0
0.0
0.0
0.0
0.0
0.0
0.0
0.0
0.0
0.0
0.0
0.0
0.0
0.0
0.0
0.0
0.0
0.0
0.0
0.0
0.0
0.0
0.0
0.0
0.0
0.0
0.0
0.0
0.0
0.0
0.0
0.0
0.0
0.0
0.0
0.0
0.0
0.0
0.0
0.0
0.0
0.0
0.0
0.0
0.0
0.0
0.0
0.0
0.0
0.0
0.0
0.0
0.0
0.0
0.0
0.0
0.0
0.0
0.0
0.0
0.0
0.0
0.0
0.0
0.0
0.0
0.0
0.0
0.0
0.0
0.0
0.0
0.0
0.0
0.0
0.0
0.0
0.0
0.0
0.0
0.0
0.0
0.0
0.0
0.0
0.0
0.0
0.0
0.0
0.0
0.0
0.0
0.0
0.0
0.0
0.0
0.0
0.0
0.0
0.0
0.0
0.0
0.0
0.0
0.0
0.0
0.0
0.0
0.0
0.0
0.0
0.0
0.0
0.0
0.0
0.0
0.0
0.0
0.0
0.0
0.0
0.0
0.0
0.0
0.0
0.0
0.0
0.0
0.0
0.0
0.0
0.0
0.0
0.0
0.0
0.0
0.0
0.0
0.0
0.0
0.0
0.0
0.0
0.0
0.0
0.0
0.0
0.0
0.0
0.0
0.0
0.0
0.0
0.0
0.0
0.0
0.0
0.0
0.0
0.0
0.0
0.0
0.0
0.0
0.0
0.0
0.0
0.0
0.0
0.0
0.0
0.0
0.0
0.0
0.0
0.0
0.0
0.0
0.0
0.0
0.0
0.0
0.0
0.0
0.0
0.0
0.0
0.0
0.0
0.0
0.0
0.0
0.0
0.0
0.0
0.0
</DataArray>
</PointData>
</Piece>
</UnstructuredGrid>
</VTKFile>
