<VTKFile type="UnstructuredGrid" version="1.0" byte_order="LittleEndian" header_type="UInt64">
<UnstructuredGrid>
<Piece NumberOfPoints="561" NumberOfCells="1026">
<Points>
<DataArray NumberOfComponents="3" type="Float64">
0.0 0.0 0.0
1.0 0.0 0.0
1.0 1.0 0.0
0.0 1.0 0.0
0.2 0.25 0.0
0.15 0.2 0.0
0.2 0.15 0.0
0.25 0.2 0.0
0.2 0.55 0.0
0.15 0.5 0.0
0.2 0.45 0.0
0.25 0.5 0.0
0.2 0.8500000000000001 0.0
0.15 0.8 0.0
0.2 0.75 0.0
0.25 0.8 0.0
0.5 0.25 0.0
0.45 0.2 0.0
0.5 0.15 0.0
0.55 0.2 0.0
0.5 0.55 0.0
0.45 0.5 0.0
0.5 0.45 0.0
0.55 0.5 0.0
0.5 0.8500000000000001 0.0
0.45 0.8 0.0
0.5 0.75 0.0
0.55 0.8 0.0
0.8 0.25 0.0
0.75 0.2 0.0
0.8 0.15 0.0
0.8500000000000001 0.2 0.0
0.8 0.55 0.0
0.75 0.5 0.0
0.8 0.45 0.0
0.8500000000000001 0.5 0.0
0.8 0.8500000000000001 0.0
0.75 0.8 0.0
0.8 0.75 0.0
0.8500000000000001 0.8 0.0
0.1646446608727939 0.2353553389914487 0.0
0.1646446610085513 0.1646446608727939 0.0
0.2353553391272061 0.1646446610085513 0.0
0.2353553389914487 0.2353553391272061 0.0
0.1646446608926911 0.5353553390113459 0.0
0.1646446610424293 0.464644660838916 0.0
0.2353553391217903 0.4646446610031355 0.0
0.2353553389872769 0.5353553391313779 0.0
0.1646446608926911 0.835355339011346 0.0
0.1646446610127232 0.7646446608686222 0.0
0.2353553391073089 0.7646446609886541 0.0
0.09999999999981467 0.0 0.0
0.1999999999995579 0.0 0.0
0.2999999999992664 0.0 0.0
0.3999999999989749 0.0 0.0
0.4999999999986943 0.0 0.0
0.5999999999989468 0.0 0.0
0.69999999999921 0.0 0.0
0.7999999999994734 0.0 0.0
0.8999999999997368 0.0 0.0
0.464644660838916 0.2353553389575707 0.0
0.4646446610031355 0.1646446608782098 0.0
0.5353553391313779 0.1646446610127232 0.0
0.5353553390113459 0.2353553391073089 0.0
0.4646446609191431 0.535355339037798 0.0
0.4646446610370135 0.4646446608443318 0.0
0.5353553391259621 0.4646446610073074 0.0
0.5353553390335396 0.5353553390851152 0.0
0.4646446609191431 0.835355339037798 0.0
0.4646446610073074 0.7646446608740379 0.0
1.0 0.09999999999981467 0.0
1.0 0.1999999999995579 0.0
1.0 0.2999999999992664 0.0
1.0 0.3999999999989749 0.0
1.0 0.4999999999986943 0.0
1.0 0.5999999999989468 0.0
1.0 0.69999999999921 0.0
1.0 0.7999999999994734 0.0
1.0 0.8999999999997368 0.0
0.5353553390335396 0.8353553390851153 0.0
0.7646446608686222 0.2353553389872769 0.0
0.7646446609886541 0.1646446608926911 0.0
0.8353553391313779 0.1646446610127232 0.0
0.835355339011346 0.2353553391073089 0.0
0.7646446609148848 0.5353553390335396 0.0
0.7646446609622021 0.4646446609191431 0.0
0.8353553391259622 0.4646446610073074 0.0
0.8353553390335396 0.5353553390851152 0.0
0.7646446609148848 0.8353553390335396 0.0
0.8999999999995836 1.0 0.0
0.7999999999999998 1.0 0.0
0.7000000000006934 1.0 0.0
0.6000000000013869 1.0 0.0
0.5000000000020587 1.0 0.0
0.4000000000016644 1.0 0.0
0.3000000000012483 1.0 0.0
0.2000000000008322 1.0 0.0
0.100000000000416 1.0 0.0
0.8353553390851153 0.7646446609664604 0.0
0.8353553390335396 0.8353553390851153 0.0
0.0 0.8999999999995836 0.0
0.0 0.7999999999999998 0.0
0.0 0.7000000000006934 0.0
0.0 0.6000000000013869 0.0
0.0 0.5000000000020587 0.0
0.0 0.4000000000016644 0.0
0.0 0.3000000000012483 0.0
0.0 0.2000000000008322 0.0
0.0 0.100000000000416 0.0
0.2353553389872769 0.8353553391313779 0.0
0.5353553390851152 0.7646446609664604 0.0
0.7646446609664604 0.7646446609148848 0.0
0.3433898395275172 0.3506711751366992 0.0
0.6555223459501304 0.3454869675941158 0.0
0.345221666793714 0.6526563204031345 0.0
0.6500000000000001 0.6500000000000001 0.0
0.3376521968691558 0.1382043895083632 0.0
0.1382043895133763 0.3376521967853719 0.0
0.662347803202637 0.1382043895520366 0.0
0.1382043895520382 0.6376521967973626 0.0
0.3623478031405708 0.861795610525198 0.0
0.8617956104989657 0.362347803199541 0.0
0.6376521968143625 0.8617956104085769 0.0
0.8617956104085793 0.6623478031856377 0.0
0.4577442078074788 0.351070261471894 0.0
0.35 0.4583333333333333 0.0
0.6459020038819421 0.4617868175191547 0.0
0.4583333333333332 0.65 0.0
0.5530890607669136 0.3613201225761349 0.0
0.3273703710454821 0.5577318018698613 0.0
0.6312499999999998 0.5541666666666667 0.0
0.5541666666666664 0.6687499999999998 0.0
0.2439339827500904 0.3534009741251356 0.0
0.3534009741333171 0.2439339827555447 0.0
0.645542633255165 0.2494789938936431 0.0
0.7540219891571036 0.3491277921959138 0.0
0.249952272779098 0.6530833888937803 0.0
0.3484148065846917 0.7545879643268294 0.0
0.6531222076166924 0.7497400369911574 0.0
0.7505210060732426 0.645542633241858 0.0
0.4039637890308081 0.5862884104434813 0.0
0.412084139813457 0.4119563048845528 0.0
0.5880044795246634 0.2926772259834077 0.0
0.7067067285638935 0.5871080864771689 0.0
0.4090296395354618 0.7151635620813825 0.0
0.710197217617496 0.4092669477118412 0.0
0.5705712315775688 0.6017363862836691 0.0
0.4129062502019396 0.2900031303949859 0.0
0.2875759077313267 0.4120913242586335 0.0
0.2857822245280523 0.286403119234693 0.0
0.7121827393464313 0.2851331787597786 0.0
0.7150652678408427 0.7134888166540321 0.0
0.2854198242405634 0.7144204535284502 0.0
0.596355661119427 0.4317463272007821 0.0
0.5195729035608143 0.3137550414159756 0.0
0.6814429780261859 0.5177727375312514 0.0
0.3826688547938011 0.5174013060277558 0.0
0.2742095802077177 0.5888719740076885 0.0
0.5881583496321303 0.7258694804636643 0.0
0.512916648925923 0.6130876559396792 0.0
0.4956876225771484 0.3916916101055488 0.0
0.6091203914685013 0.4955611555134115 0.0
0.3081086880202347 0.4951904105963052 0.0
0.4999999999999998 0.6913194444444444 0.0
0.05985636373714733 0.4420530910850028 0.0
0.9358864235191767 0.1421319380791616 0.0
0.2579469087763238 0.940143636305655 0.0
0.2572591731173738 0.07045208466228416 0.0
0.06411357656219142 0.1421319379513652 0.0
0.5579469089030646 0.05985636373221363 0.0
0.1421319380781085 0.06411357648234975 0.0
0.07045208466695235 0.2572591730084375 0.0
0.9295479153439864 0.4427408269776643 0.0
0.05985636373118473 0.7420530910991101 0.0
0.857868062047356 0.06411357656456783 0.0
0.9401436362836448 0.2579469088865591 0.0
0.4420530912261119 0.05985636371218914 0.0
0.1421319379601523 0.9358864234555444 0.0
0.07045208468232296 0.5572591730179106 0.0
0.06411357648701377 0.8578680619420427 0.0
0.7427408269774269 0.07045208468143335 0.0
0.9401436362796813 0.5579469088793961 0.0
0.7420530911272205 0.9401436362825517 0.0
0.9358864234788886 0.8578680620215167 0.0
0.557259173049598 0.9295479153066358 0.0
0.8578680619732905 0.9358864235092152 0.0
0.9295479153065642 0.7427408269514637 0.0
0.4427408269129883 0.9295479153609203 0.0
0.3143918185721838 0.19209726506541 0.0
0.1920972650952285 0.3143918185536934 0.0
0.685543141712359 0.1913525648670957 0.0
0.1935957104113677 0.6144796997410339 0.0
0.809504244004653 0.3856396610029235 0.0
0.3856396609623359 0.8095042440251847 0.0
0.6144796997484514 0.8064042895564912 0.0
0.8086474350951405 0.6855431417113358 0.0
0.1892629235394513 0.3860472153512443 0.0
0.3860472153840332 0.1892629235625572 0.0
0.6139842252634227 0.1894054608058127 0.0
0.1892545645570567 0.6860837355980296 0.0
0.8107370764580965 0.3139527846426451 0.0
0.3139162643942123 0.8107454354581183 0.0
0.6860472153811453 0.8107370764108126 0.0
0.8105945391657486 0.6139842252475645 0.0
0.4611414873717721 0.5920261295844056 0.0
0.64588989174686 0.4045281252147507 0.0
0.4077563014273697 0.4649729498043385 0.0
0.1352479275248563 0.4080729418485258 0.0
0.5919270581242425 0.1352479275322719 0.0
0.1352479275322713 0.7080729418757574 0.0
0.8647520724968161 0.2919270581077186 0.0
0.4080729420117861 0.1352479275090695 0.0
0.291927057990262 0.8647520725184488 0.0
0.708072941916764 0.8647520724650545 0.0
0.8647520724650537 0.5919270580832346 0.0
0.4023937232125269 0.3536208203306642 0.0
0.3541738588628671 0.4031000864928675 0.0
0.4048342686835711 0.6447434006119712 0.0
0.71316561210788 0.4653396854661837 0.0
0.2874850431956504 0.1351923300651653 0.0
0.1351923301412642 0.287485043121117 0.0
0.4125149568291094 0.8648076699653156 0.0
0.8648076698863019 0.4125149568736285 0.0
0.7125149568579259 0.1351923301736325 0.0
0.1351923301736628 0.5874850431419016 0.0
0.5874850431667454 0.8648076697977991 0.0
0.8648076697977938 0.7125149568332956 0.0
0.4669565156295485 0.2870570218847242 0.0
0.590687671546755 0.2407081407199352 0.0
0.7592918592591411 0.5906876715490426 0.0
0.628314831649785 0.604448761006592 0.0
0.2943959469377353 0.644686885458281 0.0
0.6435962868630796 0.7139205107269279 0.0
0.3541603945295475 0.6083266947287502 0.0
0.6381293107031111 0.2969749241621514 0.0
0.7033184070609535 0.6390130951465713 0.0
0.2365527442584948 0.4117538692896706 0.0
0.7538888166046027 0.2890016099317594 0.0
0.7108528717570168 0.7535478998948462 0.0
0.412428250006682 0.2451687953606375 0.0
0.3646049217394279 0.291369123885017 0.0
0.2997666023716281 0.3650313382879617 0.0
0.703282664384316 0.3560855151264761 0.0
0.358138582971924 0.7055356210530691 0.0
0.9402343666375695 0.6245829212181908 0.0
0.6754170787829508 0.9402343666380462 0.0
0.3245829211491601 0.940234366681378 0.0
0.3754170788557261 0.05976563334184509 0.0
0.6245829212382927 0.05976563334993901 0.0
0.05976563334976909 0.6754170787621089 0.0
0.9402343666753659 0.3245829212273756 0.0
0.05976563333581809 0.3754170787494793 0.0
0.6039102987483714 0.3686712308599859 0.0
0.6012930499303716 0.6517346089211749 0.0
0.2864297804870796 0.2405172437802475 0.0
0.4136086917315461 0.7616115504825639 0.0
0.2404795313617054 0.2864674927196282 0.0
0.758353287519132 0.4143267069527965 0.0
0.2830927819934522 0.761721308423855 0.0
0.2383775627313655 0.7168147508404688 0.0
0.7194341630926276 0.2412202997664903 0.0
0.7588080497214451 0.7196207455854151 0.0
0.5781661925444088 0.5462409467938331 0.0
0.5425156010469789 0.4175588442268487 0.0
0.2838157140155749 0.5421456515675847 0.0
0.5416674579335911 0.7178559517551015 0.0
0.4572520847679629 0.4146290290264605 0.0
0.4514650015977484 0.7124530617828471 0.0
0.2825175937747805 0.4632535898271452 0.0
0.419560766274629 0.545841732107458 0.0
0.5417004983287753 0.2884467063260733 0.0
0.7105882437563859 0.5409816789747722 0.0
[...]
<PointData Scalars="solution">
<DataArray type="Float64" Name="Real part" format="ascii">
0.20258077315420414
0.47912362726252616
0.5596722518878916
0.3013496727549117
0.32138050757165587
0.2720621704880466
0.28753299363931534
0.3442887691183429
0.4366284287553804
0.3794672461502419
0.40014896085149804
0.46506318811416575
0.4923003120758988
0.4626031573932196
0.5038544065088144
0.5478658150360144
0.6532067147197085
0.5701848622886996
0.5901763297461946
0.6754440685064502
0.7723724502426407
0.7010831236304093
0.7419810268354395
0.8087473252134227
0.7899217829044264
0.7763439485214048
0.8376947181192351
0.8703765311928336
0.9186376624645219
0.8782447310017647
0.8359353982992175
0.8658569433738716
1.0335312377273798
1.0150937092725836
1.0060497707636882
0.9895087221873298
1.0245376477696928
1.0665077554022389
1.087481412617713
1.0335990487901334
0.29044358020815275
0.2704624484451761
0.31674795981814885
0.3413972109333431
0.40084357559921857
0.37831320711927924
0.4380235018773606
0.46125672599474954
0.46838311888597073
0.4756753060868078
0.534928863324287
0.2087175828426108
0.23482336159752917
0.27532189699061876
0.3370840838498532
0.39784592776338684
0.4426009190858272
0.4845973027243722
0.5187819023494319
0.49974511529874954
0.6064072965493348
0.5659217247617474
0.6362840764795965
0.6828356270154236
0.7244454036599672
0.7009504603844612
0.7783935420776359
0.8009826807002807
0.7650197098597119
0.7928403279435725
0.5073671223756566
0.5517990780703986
0.5701198352036597
0.5909416406139761
0.6260223248526562
0.6263878926087508
0.6271911912565301
0.6362779982374239
0.5926326175147668
0.8300112918428698
0.9064891991750834
0.8433798927921387
0.8433839546895122
0.8999987367241902
1.0313084974803686
1.0008398221795105
0.9836999284523507
1.0145467473959107
1.0445223467512432
0.5890980580343239
0.6192048194892841
0.593634706133566
0.5483386987307451
0.5154050809707609
0.45039478840546926
0.39469833544581384
0.35312207685020097
0.31634646560077107
1.054257723338232
1.0217802845147859
0.30788907590617826
0.3157289054995548
0.30654447726550554
0.28852024228649104
0.2749370489326866
0.2530509844532034
0.22942286244952084
0.21517850389130846
0.2042418146795615
0.5270053477992941
0.8636580407250148
1.0853696881738097
0.37893126393274296
0.5907528280517071
0.4503662760981812
0.6536331052622165
0.3293707585511374
0.2684060821345839
0.5501919308306052
0.34003721027512185
0.4855290294128387
0.6692330168455745
0.6569106711342134
0.7272670632123833
0.49490979469735524
0.43712011988694416
0.6623031753455944
0.5704800795116841
0.5599800844002627
0.43789056346139116
0.6657772429281292
0.6342871944547473
0.32334033617397956
0.37374873276460036
0.5856616197642053
0.6779822693184804
0.4015894229346282
0.4909618863879586
0.7034889630050887
0.7414543569232468
0.5169022672687645
0.48641307203268935
0.5619227830678912
0.7258575108790123
0.5509731957571119
0.6894798823662437
0.6418898202210769
0.44393216666183594
0.3739360333290856
0.33222852313393586
0.6578028089222296
0.7620712792852904
0.44544759005099827
0.6309460437966053
0.5449955295599073
0.7268023629807746
0.4991946622801435
0.4128231218111514
0.6861314543498984
0.6263087194276331
0.5672263635282161
0.6747937096789625
0.42613988130171215
0.644247671138885
0.2699022887063826
0.5554057138375045
0.3874729975796218
0.2628968889802079
0.21145107481631492
0.4413460850498585
0.21977802119033646
0.22964881592640954
0.6536915964703953
0.32329858686870805
0.5409410493465674
0.5905859256056449
0.37742767348872874
0.3410020014658336
0.29683543838637116
0.3252373780651981
0.5435969153925915
0.6591126504023936
0.6430461720898276
0.6504502628242775
0.5730514900773975
0.6440352307043983
0.6855493847858944
0.5128517444732029
0.3357420056283799
0.29198748016990417
0.6294511985298519
0.37457734007746335
0.7350928782769296
0.5482165112032101
0.7024341732204754
0.7993649677985244
0.31549643966942525
0.4045371859399992
0.5671254376130176
0.3924533295478992
0.7070307881453554
0.47843424939748896
0.757431758274621
0.7825121729713888
0.6021096284183157
0.6180643118842091
0.5307236266626681
0.2973458091952145
0.5251940405395779
0.3684414680605695
0.6849983878295294
0.4042267714825508
0.45007798191471193
0.7412644850990326
0.7597903686221249
0.4361319483214964
0.41112316982581887
0.5083269256511199
0.7850698728355576
0.3003018268530951
0.2598685209797854
0.5526618972251924
0.7254572089133567
0.6112863764652297
0.33874267396001356
0.6605279785408587
0.7777206224674544
0.5246329837077599
0.5861504734534363
0.8071139580461538
0.6464797488989008
0.4173381405601127
0.6757330581892764
0.454554056815942
0.5747988826968053
0.6956075238630062
0.3592511410181678
0.7168081946807539
0.8108267509811908
0.4579494647236269
0.38710334158014414
0.3541422889233512
0.6339749640769282
0.4790421710744392
0.643861036361682
0.6004207722807349
0.41481892159744743
0.32625491179539107
0.4650059765953738
0.30838805825423715
0.589535970862777
0.2501910716146652
0.5760777120815217
0.6342341041200693
0.332780373436124
0.6014886473663865
0.3148899317783845
0.7745647957238248
0.47618490043881145
0.442512981164808
0.7061601462140158
0.8508336904354038
0.6914814185273195
0.6279995014402908
0.427626741999295
0.701000036663309
0.5599035590532145
0.6223021961009725
0.40924407710678656
0.5675413897681074
0.5705783778395912
0.7854493235992674
0.4933918900240405
0.6870704372260591
0.403587112066639
0.7361211121034349
0.6675476115028548
0.6682164942408667
0.43982065569054196
0.5508026112582876
0.6997664449325629
0.5659278754518071
0.6797056976379444
0.6159852559899891
0.6108676276599595
0.5407138415468961
0.675414894895691
0.4463660473207754
0.6251899393917163
0.4272183705332594
0.3495547927979846
0.6603293510778508
0.24402129745042142
0.6269316155941035
0.29804973620458225
0.30900244090825935
0.5131193114972726
0.4652700386751218
0.5974822963661146
0.673811880198704
0.6267798178165698
0.49447550122776246
0.5472856515558926
0.5439859184210861
0.4634063122672458
0.6453621467026694
0.4621051481179095
0.40229725406827005
0.49657316865750095
0.5965648304177895
0.3115776202343078
0.20377913867127448
0.507227341601072
0.7973917747948213
0.41644742946972785
0.3838960860563644
0.5053709778996001
0.651174214544775
0.6915766904298106
0.5261254278909274
0.3295901103390915
0.35159833576627225
0.7228954961732125
0.31587678802096797
0.2759769917322732
0.23754743958246557
0.5022384111218999
0.7013515672104931
0.4012708248452015
0.3819012875837586
0.6704183739627435
0.42910868979004196
0.6837414135450047
0.25025053016660864
0.24592367623020986
0.79088401146794
0.4618610433727267
0.7921919985555272
0.3346192144147756
0.6685637120893606
0.3853269896196873
0.7985818564700118
0.8140641973105854
0.6261484785452756
0.6685751854793471
0.8333569093502587
0.8058425148651056
0.6050124236891431
0.7281512436722353
0.4195818122443779
0.654693405964626
0.33214768169219433
0.5739271507179934
0.4134782042927365
0.7565202723566148
0.4577125277687065
0.47989158918000285
0.8441158290425677
0.8431779689657852
0.5719953533006473
0.7379901933197976
0.5679934766157778
0.4621904551397591
0.4149600273906982
0.4120201121802101
0.3480327076408039
0.6526071773367578
0.5127670010484985
0.5955870431509852
0.30593321382684213
0.3648290241158012
0.5872927699551456
0.3845455298446499
0.6966713506618394
0.7071288285450106
0.7638966423666865
0.4999085438042917
0.5890938284562175
0.32137126577204367
0.28725178597809986
0.7052627869333911
0.38218711347240497
0.6266885807772429
0.8205022097286804
0.7441659661504259
0.8849839470317411
0.5716393002053566
0.8202786381014829
0.43176544843248915
0.6478298167275083
0.7445508111945321
0.8753293672964423
0.4194994414510732
0.48885848591426156
0.32830485072734744
0.4806709313665517
0.6035215917088973
0.5633326745823415
0.4702866095740145
0.2951321358325816
0.3439678317766013
0.5724551563176137
0.43263567615333354
0.3465856712478415
0.2426318499367908
0.21986533296077557
0.223849614430903
0.5801134175461748
0.698565431518399
0.6881179302414068
0.7035966847053583
0.6129102633904018
0.3793934186341134
0.5657367053731743
0.697754219429744
0.39784639231298313
0.6928461123322036
0.7134876968507015
0.6476251147111548
0.4236620282122464
0.7350917708361586
0.7187464280484452
0.45771774167998897
0.6633988095167438
0.39124146902672263
0.5584396338640698
0.6819152865309359
0.7809121723503222
0.6252943634553858
0.6529251928288449
0.34664103895990916
0.30842745219670525
0.5242705399424693
0.596577474947162
0.8547925038518804
0.6619133444933041
0.6743249518263814
0.5430902790032528
0.7243359841528757
0.5843318513383449
0.6371862111891633
0.43585397829240663
0.7167629843775225
0.6014104590324145
0.3514924780906993
0.46584766368333486
0.6349360161839579
0.6005417335439778
0.852166288160476
0.4062623246136984
0.47948955090578965
0.7613828192491561
0.8532703387711924
0.4333155206572317
0.49102161970789904
0.328159441764802
0.40971967646354823
0.5772578086354757
0.7731151837835217
0.5791914801403275
0.43103249826409823
0.6497544083193073
0.698934278961927
0.752578476264904
0.6001238249297132
0.5902486511554692
0.6157987036141663
0.6325475604665174
0.8851353270979776
0.288490666146087
0.35204211608293906
0.5724153492038764
0.3644469654301085
0.6911067708472125
0.4953682591012128
0.694215550006896
0.7557836022699773
0.5234323828901277
0.29214368038273036
0.5411984683806622
0.364704719235388
0.37845035227864887
0.6801925080707751
0.4652017611928633
0.7494548720992341
0.7139712828530714
0.6622053513868029
0.5699015898786369
0.6399410252108769
0.8340970129967502
0.42546664239660653
0.6397440305290474
0.33212231631596434
0.3048854469164276
0.7131568955804657
0.8837473837232355
0.6279529204198259
0.6753870435544009
0.6639091636334975
0.6586941330669079
0.40181493719796113
0.38609237322936774
0.4546253224016985
0.6618923769580662
0.6942846953769612
0.6392703927056188
0.4684038003416017
0.46590208791436566
0.3269910886652356
0.5517374642943688
0.40476563518547054
0.7518706087311705
0.842578683813966
0.8468289541873659
0.6360816383114334
0.7205604840309401
0.4163729917987323
0.26703289508128913
0.5045683952111277
0.33264176806355417
0.6357425434674006
0.6962659303021086
0.6520502065860058
0.3461315761050856
0.44324685725065965
0.3872113814365472
0.5216869913712139
0.6249101698117836
0.9104790213052577
0.47754068695886304
0.8040034627643431
0.9309663892481964
0.4689701714776494
0.5104304285856295
0.4411680212163137
0.3886163922236593
0.42314606463192406
0.7145314182736182
0.6958194618845223
0.6434046604220285
0.4881769810730704
0.3462419185079504
0.2825132742540813
0.4555915897821005
0.4793681624838925
0.42813217278698007
0.670846484350834
0.4815793971846622
0.6886433293647968
0.5402474355581208
0.3747630692445324
0.27705667056036987
0.3250053946879501
0.7202601293485021
0.6075708604704269
0.3569574992194929
0.5362172554163107
0.6844854058242699
0.7803579266937396
0.6163194333419993
0.9083416721946342
</DataArray>
<DataArray type="Float64" Name="Imag part" format="ascii">
0.0
0.0
0.0
0.0
0.0
0.0
0.0
0.0
0.0
0.0
0.0
0.0
0.0
0.0
0.0
0.0
0.0
0.0
0.0
0.0
0.0
0.0
0.0
0.0
0.0
0.0
0.0
0.0
0.0
0.0
0.0
0.0
0.0
0.0
0.0
0.0
0.0
0.0
0.0
0.0
0.0
0.0
0.0
0.0
0.0
0.0
0.0
0.0
0.0
0.0
0.0
0.0
0.0
0.0
0.0
0.0
0.0
0.0
0.0
0.0
0.0
0.0
0.0
0.0
0.0
0.0
0.0
0.0
0.0
0.0
0.0
0.0
0.0
0.0
0.0
0.0
0.0
0.0
0.0
0.0
0.0
0.0
0.0
0.0
0.0
0.0
0.0
0.0
0.0
0.0
0.0
0.0
0.0
0.0
0.0
0.0
0.0
0.0
0.0
0.0
0.0
0.0
0.0
0.0
0.0
0.0
0.0
0.0
0.0
0.0
0.0
0.0
0.0
0.0
0.0
0.0
0.0
0.0
0.0
0.0
0.0
0.0
0.0
0.0
0.0
0.0
0.0
0.0
0.0
0.0
0.0
0.0
0.0
0.0
0.0
0.0
0.0
0.0
0.0
0.0
0.0
0.0
0.0
0.0
0.0
0.0
0.0
0.0
0.0
0.0
0.0
0.0
0.0
0.0
0.0
0.0
0.0
0.0
0.0
0.0
0.0
0.0
0.0
0.0
0.0
0.0
0.0
0.0
0.0
0.0
0.0
0.0
0.0
0.0
0.0
0.0
0.0
0.0
0.0
0.0
0.0
0.0
0.0
0.0
0.0
0.0
0.0
0.0
0.0
0.0
0.0
0.0
0.0
0.0
0.0
0.0
0.0
0.0
0.0
0.0
0.0
0.0
0.0
0.0
0.0
0.0
0.0
0.0
0.0
0.0
0.0
0.0
0.0
0.0
0.0
0.0
0.0
0.0
0.0
0.0
0.0
0.0
0.0
0.0
0.0
0.0
0.0
0.0
0.0
0.0
0.0
0.0
0.0
0.0
0.0
0.0
0.0
0.0
0.0
0.0
0.0
0.0
0.0
0.0
0.0
0.0
0.0
0.0
0.0
0.0
0.0
0.0
0.0
0.0
0.0
0.0
0.0
0.0
0.0
0.0
0.0
0.0
0.0
0.0
0.0
0.0
0.0
0.0
0.0
0.0
0.0
0.0
0.0
0.0
0.0
0.0
0.0
0.0
0.0
0.0
0.0
0.0
0.0
0.0
0.0
0.0
0.0
0.0
0.0
0.0
0.0
0.0
0.0
0.0
0.0
0.0
0.0
0.0
0.0
0.0
0.0
0.0
0.0
0.0
0.0
0.0
0.0
0.0
0.0
0.0
0.0
0.0
0.0
0.0
0.0
0.0
0.0
0.0
0.0
0.0
0.0
0.0
0.0
0.0
0.0
0.0
0.0
0.0
0.0
0.0
0.0
0.0
0.0
0.0
0.0
0.0
0.0
0.0
0.0
0.0
0.0
0.0
0.0
0.0
0.0
0.0
0.0
0.0
0.0
0.0
0.0
0.0
0.0
0.0
0.0
0.0
0.0
0.0
0.0
0.0
0.0
0.0
0.0
0.0
0.0
0.0
0.0
0.0
0.0
0.0
0.0
0.0
0.0
0.0
0.0
0.0
0.0
0.0
0.0
0.0
0.0
0.0
0.0
0.0
0.0
0.0
0.0
0.0
0.0
0.0
0.0
0.0
0.0
0.0
0.0
0.0
0.0
0.0
0.0
0.0
0.0
0.0
0.0
0.0
0.0
0.0
0.0
0.0
0.0
0.0
0.0
0.0
0.0
0.0
0.0
0.0
0.0
0.0
0.0
0.0
0.0
0.0
0.0
0.0
0.0
0.0
0.0
0.0
0.0
0.0
0.0
0.0
0.0
0.0
0.0
0.0
0.0
0.0
0.0
0.0
0.0
0.0
0.0
0.0
0.0
0.0
0.0
0.0
0.0
0.0
0.0
0.0
0.0
0.0
0.0
0.0
0.0
0.0
0.0
0.0
0.0
0.0
0.0
0.0
0.0
0.0
0.0
0.0
0.0
0.0
0.0
0.0
0.0
0.0
0.0
0.0
0.0
0.0
0.0
0.0
0.0
0.0
0.0
0.0
0.0
0.0
0.0
0.0
0.0
0.0
0.0
0.0
0.0
0.0
0.0
0.0
0.0
0.0
0.0
0.0
0.0
0.0
0.0
0.0
0.0
0.0
0.0
0.0
0.0
0.0
0.0
0.0
0.0
0.0
0.0
0.0
0.0
0.0
0.0
0.0
0.0
0.0
0.0
0.0
0.0
0.0
0.0
0.0
0.0
0.0
0.0
0.0
0.0
0.0
0.0
0.0
0.0
0.0
0.0
0.0
0.0
0.0
0.0
0.0
0.0
0.0
0.0
0.0
0.0
0.0
0.0
0.0
0.0
0.0
0.0
0.0
0.0
0.0
0.0
0.0
0.0
</DataArray>
</PointData>
</Piece>
</UnstructuredGrid>
</VTKFile>
