<VTKFile type="UnstructuredGrid" version="1.0" byte_order="LittleEndian" header_type="UInt64">
<UnstructuredGrid>
<Piece NumberOfPoints="561" NumberOfCells="1026">
<Points>
<DataArray NumberOfComponents="3" type="Float64">
0.0 0.0 0.0
1.0 0.0 0.0
1.0 1.0 0.0
0.0 1.0 0.0
0.2 0.25 0.0
0.15 0.2 0.0
0.2 0.15 0.0
0.25 0.2 0.0
0.2 0.55 0.0
0.15 0.5 0.0
0.2 0.45 0.0
0.25 0.5 0.0
0.2 0.8500000000000001 0.0
0.15 0.8 0.0
0.2 0.75 0.0
0.25 0.8 0.0
0.5 0.25 0.0
0.45 0.2 0.0
0.5 0.15 0.0
0.55 0.2 0.0
0.5 0.55 0.0
0.45 0.5 0.0
0.5 0.45 0.0
0.55 0.5 0.0
0.5 0.8500000000000001 0.0
0.45 0.8 0.0
0.5 0.75 0.0
0.55 0.8 0.0
0.8 0.25 0.0
0.75 0.2 0.0
0.8 0.15 0.0
0.8500000000000001 0.2 0.0
0.8 0.55 0.0
0.75 0.5 0.0
0.8 0.45 0.0
0.8500000000000001 0.5 0.0
0.8 0.8500000000000001 0.0
0.75 0.8 0.0
0.8 0.75 0.0
0.8500000000000001 0.8 0.0
0.1646446608727939 0.2353553389914487 0.0
0.1646446610085513 0.1646446608727939 0.0
0.2353553391272061 0.1646446610085513 0.0
0.2353553389914487 0.2353553391272061 0.0
0.1646446608926911 0.5353553390113459 0.0
0.1646446610424293 0.464644660838916 0.0
0.2353553391217903 0.4646446610031355 0.0
0.2353553389872769 0.5353553391313779 0.0
0.1646446608926911 0.835355339011346 0.0
0.1646446610127232 0.7646446608686222 0.0
0.2353553391073089 0.7646446609886541 0.0
0.09999999999981467 0.0 0.0
0.1999999999995579 0.0 0.0
0.2999999999992664 0.0 0.0
0.3999999999989749 0.0 0.0
0.4999999999986943 0.0 0.0
0.5999999999989468 0.0 0.0
0.69999999999921 0.0 0.0
0.7999999999994734 0.0 0.0
0.8999999999997368 0.0 0.0
0.464644660838916 0.2353553389575707 0.0
0.4646446610031355 0.1646446608782098 0.0
0.5353553391313779 0.1646446610127232 0.0
0.5353553390113459 0.2353553391073089 0.0
0.4646446609191431 0.535355339037798 0.0
0.4646446610370135 0.4646446608443318 0.0
0.5353553391259621 0.4646446610073074 0.0
0.5353553390335396 0.5353553390851152 0.0
0.4646446609191431 0.835355339037798 0.0
0.4646446610073074 0.7646446608740379 0.0
1.0 0.09999999999981467 0.0
1.0 0.1999999999995579 0.0
1.0 0.2999999999992664 0.0
1.0 0.3999999999989749 0.0
1.0 0.4999999999986943 0.0
1.0 0.5999999999989468 0.0
1.0 0.69999999999921 0.0
1.0 0.7999999999994734 0.0
1.0 0.8999999999997368 0.0
0.5353553390335396 0.8353553390851153 0.0
0.7646446608686222 0.2353553389872769 0.0
0.7646446609886541 0.1646446608926911 0.0
0.8353553391313779 0.1646446610127232 0.0
0.835355339011346 0.2353553391073089 0.0
0.7646446609148848 0.5353553390335396 0.0
0.7646446609622021 0.4646446609191431 0.0
0.8353553391259622 0.4646446610073074 0.0
0.8353553390335396 0.5353553390851152 0.0
0.7646446609148848 0.8353553390335396 0.0
0.8999999999995836 1.0 0.0
0.7999999999999998 1.0 0.0
0.7000000000006934 1.0 0.0
0.6000000000013869 1.0 0.0
0.5000000000020587 1.0 0.0
0.4000000000016644 1.0 0.0
0.3000000000012483 1.0 0.0
0.2000000000008322 1.0 0.0
0.100000000000416 1.0 0.0
0.8353553390851153 0.7646446609664604 0.0
0.8353553390335396 0.8353553390851153 0.0
0.0 0.8999999999995836 0.0
0.0 0.7999999999999998 0.0
0.0 0.7000000000006934 0.0
0.0 0.6000000000013869 0.0
0.0 0.5000000000020587 0.0
0.0 0.4000000000016644 0.0
0.0 0.3000000000012483 0.0
0.0 0.2000000000008322 0.0
0.0 0.100000000000416 0.0
0.2353553389872769 0.8353553391313779 0.0
0.5353553390851152 0.7646446609664604 0.0
0.7646446609664604 0.7646446609148848 0.0
0.3433898395275172 0.3506711751366992 0.0
0.6555223459501304 0.3454869675941158 0.0
0.345221666793714 0.6526563204031345 0.0
0.6500000000000001 0.6500000000000001 0.0
0.3376521968691558 0.1382043895083632 0.0
0.1382043895133763 0.3376521967853719 0.0
0.662347803202637 0.1382043895520366 0.0
0.1382043895520382 0.6376521967973626 0.0
0.3623478031405708 0.861795610525198 0.0
0.8617956104989657 0.362347803199541 0.0
0.6376521968143625 0.8617956104085769 0.0
0.8617956104085793 0.6623478031856377 0.0
0.4577442078074788 0.351070261471894 0.0
0.35 0.4583333333333333 0.0
0.6459020038819421 0.4617868175191547 0.0
0.4583333333333332 0.65 0.0
0.5530890607669136 0.3613201225761349 0.0
0.3273703710454821 0.5577318018698613 0.0
0.6312499999999998 0.5541666666666667 0.0
0.5541666666666664 0.6687499999999998 0.0
0.2439339827500904 0.3534009741251356 0.0
0.3534009741333171 0.2439339827555447 0.0
0.645542633255165 0.2494789938936431 0.0
0.7540219891571036 0.3491277921959138 0.0
0.249952272779098 0.6530833888937803 0.0
0.3484148065846917 0.7545879643268294 0.0
0.6531222076166924 0.7497400369911574 0.0
0.7505210060732426 0.645542633241858 0.0
0.4039637890308081 0.5862884104434813 0.0
0.412084139813457 0.4119563048845528 0.0
0.5880044795246634 0.2926772259834077 0.0
0.7067067285638935 0.5871080864771689 0.0
0.4090296395354618 0.7151635620813825 0.0
0.710197217617496 0.4092669477118412 0.0
0.5705712315775688 0.6017363862836691 0.0
0.4129062502019396 0.2900031303949859 0.0
0.2875759077313267 0.4120913242586335 0.0
0.2857822245280523 0.286403119234693 0.0
0.7121827393464313 0.2851331787597786 0.0
0.7150652678408427 0.7134888166540321 0.0
0.2854198242405634 0.7144204535284502 0.0
0.596355661119427 0.4317463272007821 0.0
0.5195729035608143 0.3137550414159756 0.0
0.6814429780261859 0.5177727375312514 0.0
0.3826688547938011 0.5174013060277558 0.0
0.2742095802077177 0.5888719740076885 0.0
0.5881583496321303 0.7258694804636643 0.0
0.512916648925923 0.6130876559396792 0.0
0.4956876225771484 0.3916916101055488 0.0
0.6091203914685013 0.4955611555134115 0.0
0.3081086880202347 0.4951904105963052 0.0
0.4999999999999998 0.6913194444444444 0.0
0.05985636373714733 0.4420530910850028 0.0
0.9358864235191767 0.1421319380791616 0.0
0.2579469087763238 0.940143636305655 0.0
0.2572591731173738 0.07045208466228416 0.0
0.06411357656219142 0.1421319379513652 0.0
0.5579469089030646 0.05985636373221363 0.0
0.1421319380781085 0.06411357648234975 0.0
0.07045208466695235 0.2572591730084375 0.0
0.9295479153439864 0.4427408269776643 0.0
0.05985636373118473 0.7420530910991101 0.0
0.857868062047356 0.06411357656456783 0.0
0.9401436362836448 0.2579469088865591 0.0
0.4420530912261119 0.05985636371218914 0.0
0.1421319379601523 0.9358864234555444 0.0
0.07045208468232296 0.5572591730179106 0.0
0.06411357648701377 0.8578680619420427 0.0
0.7427408269774269 0.07045208468143335 0.0
0.9401436362796813 0.5579469088793961 0.0
0.7420530911272205 0.9401436362825517 0.0
0.9358864234788886 0.8578680620215167 0.0
0.557259173049598 0.9295479153066358 0.0
0.8578680619732905 0.9358864235092152 0.0
0.9295479153065642 0.7427408269514637 0.0
0.4427408269129883 0.9295479153609203 0.0
0.3143918185721838 0.19209726506541 0.0
0.1920972650952285 0.3143918185536934 0.0
0.685543141712359 0.1913525648670957 0.0
0.1935957104113677 0.6144796997410339 0.0
0.809504244004653 0.3856396610029235 0.0
0.3856396609623359 0.8095042440251847 0.0
0.6144796997484514 0.8064042895564912 0.0
0.8086474350951405 0.6855431417113358 0.0
0.1892629235394513 0.3860472153512443 0.0
0.3860472153840332 0.1892629235625572 0.0
0.6139842252634227 0.1894054608058127 0.0
0.1892545645570567 0.6860837355980296 0.0
0.8107370764580965 0.3139527846426451 0.0
0.3139162643942123 0.8107454354581183 0.0
0.6860472153811453 0.8107370764108126 0.0
0.8105945391657486 0.6139842252475645 0.0
0.4611414873717721 0.5920261295844056 0.0
0.64588989174686 0.4045281252147507 0.0
0.4077563014273697 0.4649729498043385 0.0
0.1352479275248563 0.4080729418485258 0.0
0.5919270581242425 0.1352479275322719 0.0
0.1352479275322713 0.7080729418757574 0.0
0.8647520724968161 0.2919270581077186 0.0
0.4080729420117861 0.1352479275090695 0.0
0.291927057990262 0.8647520725184488 0.0
0.708072941916764 0.8647520724650545 0.0
0.8647520724650537 0.5919270580832346 0.0
0.4023937232125269 0.3536208203306642 0.0
0.3541738588628671 0.4031000864928675 0.0
0.4048342686835711 0.6447434006119712 0.0
0.71316561210788 0.4653396854661837 0.0
0.2874850431956504 0.1351923300651653 0.0
0.1351923301412642 0.287485043121117 0.0
0.4125149568291094 0.8648076699653156 0.0
0.8648076698863019 0.4125149568736285 0.0
0.7125149568579259 0.1351923301736325 0.0
0.1351923301736628 0.5874850431419016 0.0
0.5874850431667454 0.8648076697977991 0.0
0.8648076697977938 0.7125149568332956 0.0
0.4669565156295485 0.2870570218847242 0.0
0.590687671546755 0.2407081407199352 0.0
0.7592918592591411 0.5906876715490426 0.0
0.628314831649785 0.604448761006592 0.0
0.2943959469377353 0.644686885458281 0.0
0.6435962868630796 0.7139205107269279 0.0
0.3541603945295475 0.6083266947287502 0.0
0.6381293107031111 0.2969749241621514 0.0
0.7033184070609535 0.6390130951465713 0.0
0.2365527442584948 0.4117538692896706 0.0
0.7538888166046027 0.2890016099317594 0.0
0.7108528717570168 0.7535478998948462 0.0
0.412428250006682 0.2451687953606375 0.0
0.3646049217394279 0.291369123885017 0.0
0.2997666023716281 0.3650313382879617 0.0
0.703282664384316 0.3560855151264761 0.0
0.358138582971924 0.7055356210530691 0.0
0.9402343666375695 0.6245829212181908 0.0
0.6754170787829508 0.9402343666380462 0.0
0.3245829211491601 0.940234366681378 0.0
0.3754170788557261 0.05976563334184509 0.0
0.6245829212382927 0.05976563334993901 0.0
0.05976563334976909 0.6754170787621089 0.0
0.9402343666753659 0.3245829212273756 0.0
0.05976563333581809 0.3754170787494793 0.0
0.6039102987483714 0.3686712308599859 0.0
0.6012930499303716 0.6517346089211749 0.0
0.2864297804870796 0.2405172437802475 0.0
0.4136086917315461 0.7616115504825639 0.0
0.2404795313617054 0.2864674927196282 0.0
0.758353287519132 0.4143267069527965 0.0
0.2830927819934522 0.761721308423855 0.0
0.2383775627313655 0.7168147508404688 0.0
0.7194341630926276 0.2412202997664903 0.0
0.7588080497214451 0.7196207455854151 0.0
0.5781661925444088 0.5462409467938331 0.0
0.5425156010469789 0.4175588442268487 0.0
0.2838157140155749 0.5421456515675847 0.0
0.5416674579335911 0.7178559517551015 0.0
0.4572520847679629 0.4146290290264605 0.0
0.4514650015977484 0.7124530617828471 0.0
0.2825175937747805 0.4632535898271452 0.0
0.419560766274629 0.545841732107458 0.0
0.5417004983287753 0.2884467063260733 0.0
0.7105882437563859 0.5409816789747722 0.0
[...]
<PointData Scalars="solution">
<DataArray type="Float64" Name="Real part" format="ascii">
0.20255587242758902
0.4790816875369798
0.5596262011009409
0.3013181177961555
0.32135089978741366
0.2720352208870569
0.287505095518724
0.34425796250918334
0.4365950324169418
0.37943666130706016
0.40011756221400796
0.46502851603706696
0.4922656893404002
0.46257025784822664
0.503819877913661
0.547829104563315
0.6531675449481906
0.5701494753116068
0.5901393443341326
0.6754035336284328
0.7723297394210934
0.7010438889816549
0.7419400584635617
0.8087030522485186
0.7898789858899543
0.7763030610327151
0.8376513453911186
0.8703312190311183
0.918592152557797
0.8782010308275626
0.8358921311267546
0.8658122830575218
1.0334828389123258
1.0150464932050463
1.0060026853651323
0.9894607985905974
1.0244898510978866
1.0664598041477518
1.087432595593523
1.03355061684807
0.290415565777958
0.2704355759221215
0.31671843913231557
0.34136641881013735
0.4008118058004966
0.3782828521297414
0.43799017595535
0.4612220617318615
0.4683497135117441
0.47564204716029884
0.53489284146616
0.20869207905080853
0.23479617439382383
0.2752921737842801
0.33705130111314185
0.3978100584780367
0.44256234041039216
0.4845567305969281
0.5187400550515181
0.4997030071920161
0.6063703557536767
0.5658862555213604
0.6362450517151027
0.6827949716452123
0.7244047421729962
0.7009110272486183
0.7783505345424477
0.8009385096184559
0.7649782928485788
0.7927986065811862
0.5073245523424967
0.55175528521311
0.5700749312500196
0.590895739545733
0.6259754510262185
0.6263405582421768
0.6271437434623705
0.6362306889911182
0.5925860458596345
0.8299668528066265
0.9064444932551476
0.8433367074859984
0.8433401127976232
0.8999533247266002
1.0312606307732752
1.000792839029222
0.9836524190686787
1.0144983872885298
1.0444746082548406
0.5890516894140215
0.6191583831607058
0.5935891340644524
0.5482948209223256
0.5153633576943195
0.45035579076933197
0.3946619696441866
0.35308806907761475
0.31631421854388614
1.054208913690074
1.0217322239336817
0.3078574043826438
0.3156973028372508
0.3065132483257673
0.2884898628248191
0.2749077198584943
0.253022825896519
0.2293959672385869
0.2151526533114801
0.20421663346716132
0.5269693110504798
0.8636131133692224
1.0853212645848451
0.37889679365338824
0.5907091251243695
0.45032848494764904
0.6535869038890106
0.32933900431483076
0.2683773114940678
0.5501506964250763
0.34000494078073007
0.48549043604621134
0.6691868977517568
0.6568649914897455
0.7272188564790081
0.4948714030202851
0.43708394636355447
0.6622580754533773
0.5704386063234713
0.5599385474409252
0.4378539060831568
0.6657316286035372
0.6342428492748627
0.32330876383937185
0.37371522522589656
0.5856191151541023
0.6779367544920549
0.4015542657801559
0.4909234606726656
0.7034423774893923
0.7414065039374684
0.5168630327344874
0.48637553794340943
0.5618810415726769
0.7258104091439055
0.550933061373817
0.6894342852400065
0.6418452678998285
0.44389610908677046
0.3739023638124967
0.3321964558845221
0.6577585754795107
0.7620236696963685
0.4454110102137091
0.6309023457556517
0.5449554191767026
0.726756017801028
0.4991567956842717
0.4127876464353261
0.6860860192163345
0.6262656379783363
0.5671861716514999
0.6747488365767234
0.4261043203436456
0.6442046343395679
0.2698733885088283
0.5553624681928446
0.3874374993153228
0.2628680563450706
0.21142542396043504
0.4413083140365047
0.2197517955193073
0.22962204526959049
0.653644929280964
0.3232668883809453
0.5408986361380304
0.5905412618442131
0.37739338597334254
0.3409690009688426
0.2968050833688898
0.32520540624271577
0.5435552645631418
0.6590652285418235
0.6429998515833003
0.6504031048142931
0.5730080812460965
0.6439884373293571
0.6855015707854144
0.5128112788675419
0.33571018353434484
0.2919577061683374
0.6294086575432304
0.3745438996555506
0.7350464651494083
0.5481770739256413
0.7023883006633893
0.7993165190863645
0.31546594174732884
0.4045034067057084
0.567084280920527
0.3924195092676714
0.7069850573415665
0.478396612089232
0.7573847788303307
0.7824638941041656
0.6020683414366211
0.6180200251881586
0.5306856332365512
0.29731629439351687
0.5251542912684989
0.36840878681688843
0.684952861000093
0.4041929567502324
0.4500411180540137
0.7412176982290867
0.7597422356265031
0.4360954709934313
0.41108764437769985
0.5082872797343044
0.7850234777240435
0.3002714994637475
0.259840417043451
0.5526219049537707
0.7254104647050571
0.6112442501276552
0.33871091760484245
0.6604831338693541
0.7776722291164003
0.5245949496634421
0.5861090381401992
0.8070660185495917
0.646434068181364
0.417301856528723
0.6756867321368166
0.4545162733715336
0.5747560564438623
0.6955603950393591
0.3592189472707864
0.7167631703671771
0.8107791208134193
0.45791406783072647
0.3870689173613322
0.3541089736999004
0.6339301925651812
0.4790036782118163
0.6438134690115986
0.6003753289393696
0.41478178591148096
0.32622272815599246
0.46496658436621424
0.3083567291201902
0.5894906651627296
0.2501629747662548
0.5760348292383652
0.6341888281495229
0.3327486748211098
0.6014483209215571
0.3148590648139571
0.7745184056629241
0.4761480028907075
0.44247757675397703
0.7061162095266721
0.8507853916121192
0.6914366842660864
0.6279573881860987
0.42759124643938684
0.7009556171991175
0.5598644391302535
0.6222606552929043
0.4092096342774999
0.5675020406978526
0.5705377388140567
0.7854022800647126
0.4933536488154231
0.6870264178929684
0.40355285673379837
0.7360755132926998
0.667501191625184
0.6681728360278739
0.43978353066357284
0.5507615154185769
0.6997200398573769
0.5658852065220749
0.6796589122431932
0.6159419848963327
0.6108236848728152
0.5406734695514905
0.6753694181633776
0.44632951925052095
0.6251459667836643
0.42718181476642936
0.3495216321494792
0.6602842125917726
0.24399357773131708
0.626885580758733
0.2980190087572181
0.3089712342812418
0.5130785083450279
0.4652312826216152
0.5974375110688332
0.6737640211522299
0.6267352051953011
0.49443740915499096
0.5472450589407988
0.5439454741346402
0.4633694618734622
0.6453169747741315
0.46206798335693133
0.4022622306262076
0.49653394827946806
0.5965182976589396
0.31154564344521324
0.2037537998642751
0.5071849520741777
0.7973453669864882
0.4164117662244717
0.3838616107174064
0.5053342171481625
0.6511297468146504
0.6915309981870517
0.5260860746502656
0.3295579959665794
0.3515653230110178
0.7228484586770122
0.3158469474458945
0.2759483333592694
0.23752111415834515
0.5022007239800742
0.7013067114706011
0.4012371982557641
0.38186880602540185
0.6703752333071583
0.429073469453643
0.6836974808586096
0.2502234377227574
0.24589680202624353
0.790836660399742
0.46182541619969336
0.7921441277491128
0.33458845159157474
0.6685210840597611
0.38529435070051365
0.7985345704719956
0.8140162834812924
0.6261069728839457
0.6685316615734929
0.8333085601752042
0.8057949642285634
0.6049691287099834
0.7281036429574874
0.41954591609125624
0.6546485764829038
0.33211730245342025
0.5738869566229988
0.4134446703921735
0.7564746646183305
0.4576779926581294
0.47985473141586954
0.8440674823469907
0.843130575076784
0.5719532676628384
0.7379426398778758
0.567954903997406
0.46215287643598046
0.41492425748121414
0.4119853405167346
0.3480001352909035
0.6525619748479011
0.5127281965431534
0.5955449595168967
0.30590266163611013
0.36479606633877876
0.5872506676086493
0.38451138160447373
0.6966254273284059
0.7070823647241732
0.763848404177085
0.49987001230202177
0.5890512479803448
0.321340458678479
0.287222762703687
0.705219871586407
0.38215428943416924
0.6266482664315579
0.8204552956728826
0.7441206087493987
0.8849352784592404
0.5716006581340941
0.8202318308288588
0.4317284918089565
0.647787406499481
0.7445062112259437
0.8752813017329335
0.4194639899490296
0.48881958929300967
0.3282735502858679
0.48063368780563454
0.6034796462468143
0.5632933983398266
0.47025038425048044
0.29510233639768424
0.3439357481582022
0.5724128420808632
0.4325994066926453
0.34655308923078526
0.2426044048516088
0.21983935274286218
0.22382339649513183
0.5800704019356396
0.6985184651501778
0.6880707345220199
0.7035489817533799
0.6128661073786139
0.379359150379997
0.5656945892305938
0.6977069187634363
0.39781143546180797
0.6928000725864087
0.7134417806255798
0.6475792329987021
0.4236269832959203
0.7350466599611613
0.7187017707310979
0.4576806017172724
0.6633528341352252
0.3912081850396235
0.5583975703886678
0.6818694565813529
0.7808639565909822
0.6252514533988325
0.6528839765644813
0.34660861253956815
0.30839667574688295
0.5242314822025017
0.5965364982428664
0.8547442351140101
0.6618702279807495
0.6742797759782428
0.543050851209387
0.7242898322656003
0.5842914821192594
0.6371451137093056
0.435818794643312
0.71671940047259
0.6013668649019444
0.3514612047018974
0.4658128011375276
0.6348908465258511
0.6005008001642311
0.8521186252386539
0.40622761411058883
0.47945180675803734
0.7613373317422656
0.8532227465975577
0.4332811066706925
0.4909845111080047
0.32812809570137247
0.40968547014412116
0.5772160779616833
0.7730670795587036
0.5791502162209179
0.4309964607420434
0.6497105320153076
0.6988887461029977
0.7525313809343908
0.6000814589671061
0.5902050354562147
0.6157598654758808
0.6325031304836927
0.8850885000122575
0.2884610113142646
0.3520096639173561
0.5723737224642247
0.3644137942506861
0.691060692129711
0.4953297418292908
0.69416934614754
0.7557352857811098
0.523392993299799
0.2921140882599392
0.5411578006314344
0.36467178878435763
0.37841717437777966
0.6801467240004009
0.46516414114657706
0.7494066464666675
0.7139247278503676
0.6621638413187351
0.5698635467895917
0.6399006652710607
0.8340502509571477
0.425430564061067
0.6396983402836934
0.33209101989935313
0.30485550440785864
0.7131135729135252
0.8836988024311725
0.6279082626217847
0.6753426093278952
0.6638641793578777
0.6586494338186515
0.40177963705884173
0.38605768020129305
0.4545883482028136
0.6618466481631522
0.6942421722630702
0.6392308690938808
0.4683689309944575
0.46586589142149776
0.3269611559774895
0.5516983864746591
0.40473273176882635
0.7518252375835859
0.8425304778790734
0.8467816233980892
0.636041412411385
0.7205146194784111
0.4163368802320478
0.26700420554888626
0.5045282833366483
0.33260976241862145
0.6356968910060422
0.6962179732369556
0.652004283166972
0.34609909289356905
0.4432093209210766
0.3871790852688094
0.5216511046463054
0.6248692342051856
0.910430931276482
0.47750199232435364
0.8039583472689057
0.930918382625124
0.46893266539704054
0.510392685028621
0.4411315814350321
0.38858253698236533
0.4231096992086719
0.7144835530850793
0.6957729181266404
0.6433594357402977
0.48813802432012926
0.34620976059623815
0.28248415924335984
0.4555541284584375
0.47932984133265066
0.4280962245401554
0.6707998589987437
0.4815421679486334
0.6885968048426452
0.5402068957573052
0.37472884705067394
0.27702763335606206
0.32497398934480176
0.7202136605580051
0.6075287534651421
0.3569248237387595
0.5361778765753338
0.6844398024779037
0.7803095001723415
0.6162792912319708
0.9082942651699407
</DataArray>
<DataArray type="Float64" Name="Imag part" format="ascii">
0.0
0.0
0.0
0.0
0.0
0.0
0.0
0.0
0.0
0.0
0.0
0.0
0.0
0.0
0.0
0.0
0.0
0.0
0.0
0.0
0.0
0.0
0.0
0.0
0.0
0.0
0.0
0.0
0.0
0.0
0.0
0.0
0.0
0.0
0.0
0.0
0.0
0.0
0.0
0.0
0.0
0.0
0.0
0.0
0.0
0.0
0.0
0.0
0.0
0.0
0.0
0.0
0.0
0.0
0.0
0.0
0.0
0.0
0.0
0.0
0.0
0.0
0.0
0.0
0.0
0.0
0.0
0.0
0.0
0.0
0.0
0.0
0.0
0.0
0.0
0.0
0.0
0.0
0.0
0.0
0.0
0.0
0.0
0.0
0.0
0.0
0.0
0.0
0.0
0.0
0.0
0.0
0.0
0.0
0.0
0.0
0.0
0.0
0.0
0.0
0.0
0.0
0.0
0.0
0.0
0.0
0.0
0.0
0.0
0.0
0.0
0.0
0.0
0.0
0.0
0.0
0.0
0.0
0.0
0.0
0.0
0.0
0.0
0.0
0.0
0.0
0.0
0.0
0.0
0.0
0.0
0.0
0.0
0.0
0.0
0.0
0.0
0.0
0.0
0.0
0.0
0.0
0.0
0.0
0.0
0.0
0.0
0.0
0.0
0.0
0.0
0.0
0.0
0.0
0.0
0.0
0.0
0.0
0.0
0.0
0.0
0.0
0.0
0.0
0.0
0.0
0.0
0.0
0.0
0.0
0.0
0.0
0.0
0.0
0.0
0.0
0.0
0.0
0.0
0.0
0.0
0.0
0.0
0.0
0.0
0.0
0.0
0.0
0.0
0.0
0.0
0.0
0.0
0.0
0.0
0.0
0.0
0.0
0.0
0.0
0.0
0.0
0.0
0.0
0.0
0.0
0.0
0.0
0.0
0.0
0.0
0.0
0.0
0.0
0.0
0.0
0.0
0.0
0.0
0.0
0.0
0.0
0.0
0.0
0.0
0.0
0.0
0.0
0.0
0.0
0.0
0.0
0.0
0.0
0.0
0.0
0.0
0.0
0.0
0.0
0.0
0.0
0.0
0.0
0.0
0.0
0.0
0.0
0.0
0.0
0.0
0.0
0.0
0.0
0.0
0.0
0.0
0.0
0.0
0.0
0.0
0.0
0.0
0.0
0.0
0.0
0.0
0.0
0.0
0.0
0.0
0.0
0.0
0.0
0.0
0.0
0.0
0.0
0.0
0.0
0.0
0.0
0.0
0.0
0.0
0.0
0.0
0.0
0.0
0.0
0.0
0.0
0.0
0.0
0.0
0.0
0.0
0.0
0.0
0.0
0.0
0.0
0.0
0.0
0.0
0.0
0.0
0.0
0.0
0.0
0.0
0.0
0.0
0.0
0.0
0.0
0.0
0.0
0.0
0.0
0.0
0.0
0.0
0.0
0.0
0.0
0.0
0.0
0.0
0.0
0.0
0.0
0.0
0.0
0.0
0.0
0.0
0.0
0.0
0.0
0.0
0.0
0.0
0.0
0.0
0.0
0.0
0.0
0.0
0.0
0.0
0.0
0.0
0.0
0.0
0.0
0.0
0.0
0.0
0.0
0.0
0.0
0.0
0.0
0.0
0.0
0.0
0.0
0.0
0.0
0.0
0.0
0.0
0.0
0.0
0.0
0.0
0.0
0.0
0.0
0.0
0.0
0.0
0.0
0.0
0.0
0.0
0.0
0.0
0.0
0.0
0.0
0.0
0.0
0.0
0.0
0.0
0.0
0.0
0.0
0.0
0.0
0.0
0.0
0.0
0.0
0.0
0.0
0.0
0.0
0.0
0.0
0.0
0.0
0.0
0.0
0.0
0.0
0.0
0.0
0.0
0.0
0.0
0.0
0.0
0.0
0.0
0.0
0.0
0.0
0.0
0.0
0.0
0.0
0.0
0.0
0.0
0.0
0.0
0.0
0.0
0.0
0.0
0.0
0.0
0.0
0.0
0.0
0.0
0.0
0.0
0.0
0.0
0.0
0.0
0.0
0.0
0.0
0.0
0.0
0.0
0.0
0.0
0.0
0.0
0.0
0.0
0.0
0.0
0.0
0.0
0.0
0.0
0.0
0.0
0.0
0.0
0.0
0.0
0.0
0.0
0.0
0.0
0.0
0.0
0.0
0.0
0.0
0.0
0.0
0.0
0.0
0.0
0.0
0.0
0.0
0.0
0.0
0.0
0.0
0.0
0.0
0.0
0.0
0.0
0.0
0.0
0.0
0.0
0.0
0.0
0.0
0.0
0.0
0.0
0.0
0.0
0.0
0.0
0.0
0.0
0.0
0.0
0.0
0.0
0.0
0.0
0.0
0.0
0.0
0.0
0.0
0.0
0.0
0.0
0.0
0.0
0.0
0.0
0.0
0.0
0.0
0.0
0.0
0.0
0.0
0.0
0.0
0.0
0.0
0.0
0.0
0.0
0.0
0.0
0.0
0.0
0.0
0.0
0.0
0.0
</DataArray>
</PointData>
</Piece>
</UnstructuredGrid>
</VTKFile>
