<VTKFile type="UnstructuredGrid" version="1.0" byte_order="LittleEndian" header_type="UInt64">
<UnstructuredGrid>
<Piece NumberOfPoints="147" NumberOfCells="252">
<Points>
<DataArray NumberOfComponents="3" type="Float64">
0.0 0.0 0.0
100.0 0.0 0.0
100.0 100.0 0.0
0.0 100.0 0.0
9.999999999961581 0.0 0.0
19.99999999991413 0.0 0.0
29.99999999986224 0.0 0.0
39.99999999984005 0.0 0.0
49.99999999982369 0.0 0.0
59.99999999980733 0.0 0.0
69.99999999983592 0.0 0.0
79.99999999989062 0.0 0.0
89.9999999999453 0.0 0.0
100.0 9.999999999961581 0.0
100.0 19.99999999991413 0.0
100.0 29.99999999986224 0.0
100.0 39.99999999984005 0.0
100.0 49.99999999982369 0.0
100.0 59.99999999980733 0.0
100.0 69.99999999983592 0.0
100.0 79.99999999989062 0.0
100.0 89.9999999999453 0.0
90.00000000007105 100.0 0.0
80.00000000014211 100.0 0.0
70.00000000021316 100.0 0.0
60.00000000025813 100.0 0.0
50.00000000025813 100.0 0.0
40.00000000025814 100.0 0.0
30.00000000021316 100.0 0.0
20.00000000014211 100.0 0.0
10.00000000007105 100.0 0.0
0.0 90.00000000007105 0.0
0.0 80.00000000014211 0.0
0.0 70.00000000021316 0.0
0.0 60.00000000025813 0.0
0.0 50.00000000025813 0.0
0.0 40.00000000025814 0.0
0.0 30.00000000021316 0.0
0.0 20.00000000014211 0.0
0.0 10.00000000007105 0.0
48.77077672085327 50.60108009436767 0.0
71.86272650430107 70.36642332372413 0.0
29.63357667627788 71.86272650430753 0.0
70.19695009967744 28.13605605201082 0.0
28.13605605200248 29.80304990032528 0.0
78.03135888501785 49.99999999999439 0.0
49.99999999999466 21.96864111498298 0.0
50.69336031622719 77.58579074799479 0.0
22.4142092520058 50.69336031622717 0.0
82.94973544975258 82.94973544971549 0.0
17.05026455028552 82.9497354497564 0.0
82.94973544972203 17.05026455024917 0.0
17.05026455024534 17.05026455027897 0.0
84.88660690843993 64.07101126393974 0.0
64.07101126394029 15.11339309156041 0.0
35.92898873605781 84.88660690845037 0.0
15.11339309154995 35.92898873605728 0.0
64.0710112639314 84.88660690836781 0.0
84.88660690838371 35.9289887360645 0.0
15.11339309163256 64.07101126393133 0.0
35.92898873606462 15.11339309161669 0.0
64.01567944251025 56.69860627177363 0.0
42.47167143993402 62.88740751026943 0.0
57.20108710844067 36.393605305489 0.0
36.53148959535802 42.5901762081151 0.0
57.57672426757262 67.33856581720683 0.0
67.20084015303325 43.69561589754289 0.0
32.34149690078251 57.60500052967032 0.0
43.96325293119048 33.64482951353458 0.0
89.00291393479785 53.76250855836128 0.0
46.6460370864358 89.01567944254732 0.0
53.76250855836144 10.99708606520249 0.0
10.98432055745308 46.64603708643572 0.0
73.90736031445277 90.23348642127617 0.0
9.766513578724522 73.90736031445549 0.0
90.23348642129109 26.0926396855679 0.0
26.0926396855652 9.766513578709612 0.0
90.06094296448052 74.02985969814816 0.0
74.02985969815113 9.939057035520275 0.0
25.9701403018604 90.06094296449217 0.0
9.939057035508595 25.97014030185743 0.0
74.07539865922706 60.17793690321975 0.0
60.13070888076015 26.18786135811136 0.0
40.12208308545451 73.48518530519456 0.0
26.55756986379121 40.10235332842102 0.0
75.0521009966541 38.47048916130593 0.0
38.47048916130613 24.94789900334693 0.0
52.45716233160366 59.78296212305586 0.0
40.21703787694368 52.45716233160331 0.0
90.01218934945535 90.0121893494552 0.0
9.987810650543988 90.01218934945615 0.0
90.0121893494566 9.987810650543263 0.0
9.987810650542432 9.987810650542565 0.0
57.00787557221585 91.67513246759337 0.0
8.324867532406836 57.00787557221577 0.0
91.67300488297039 43.06021536862492 0.0
43.06021536862503 8.326995117029822 0.0
79.96165664371917 73.70236452029314 0.0
26.29763547971693 79.96165664372995 0.0
73.70236452029926 20.03834335628251 0.0
20.03834335627171 26.29763547971081 0.0
80.12652966216264 27.22061756614414 0.0
72.6436721653665 79.65522624761995 0.0
27.22061756612776 19.87347033784068 0.0
20.34477375238244 72.64367216537065 0.0
62.65665039667289 75.33940871970799 0.0
24.61488595429133 62.6606898626884 0.0
58.80458118159141 48.89217188370155 0.0
49.63688353501789 40.91760433105927 0.0
48.6642002881584 68.2159823007443 0.0
65.73888181515738 34.91196627618029 0.0
31.28462266326211 48.99707825112446 0.0
35.02271339463588 34.38540321231515 0.0
64.99724943021427 93.35904515944748 0.0
6.640954840552784 64.99724943021478 0.0
93.35861964252905 35.01636875799192 0.0
35.01636875799143 6.641380357471227 0.0
92.79009276154366 64.37267590401848 0.0
64.37267590401923 7.209907238456637 0.0
35.70903322496506 92.79264586309799 0.0
7.207354136902325 35.70903322496435 0.0
82.01017201096589 92.00285942771606 0.0
7.997140572283265 82.01017201096703 0.0
92.0028594277334 17.98982798902728 0.0
17.98982798902619 7.997140572266007 0.0
92.0028594277868 82.0101720109858 0.0
82.01017201098799 7.997140572211838 0.0
17.98982798900978 92.0028594277973 0.0
7.997140572201321 17.98982798900756 0.0
65.86069794636498 65.59915514081868 0.0
69.24246359119827 51.65301682473535 0.0
34.58450675270458 65.56239846554936 0.0
51.96261141780642 31.27510803709913 0.0
56.21498692709663 83.70052365724226 0.0
16.29033527755792 56.21579482029968 0.0
83.72919712156478 44.2444403648702 0.0
44.24444036487038 16.27080287843578 0.0
81.66649862792462 57.35016951369653 0.0
57.34771074534741 18.34720712058375 0.0
42.72281705178263 81.61323873709082 0.0
18.38898716716761 42.7217898882548 0.0
43.82388813187266 44.04217049573598 0.0
78.13488467922231 66.69340019278043 0.0
66.69340019278415 21.86511532077921 0.0
33.30659980722471 78.13488467923563 0.0
21.86511532076592 33.30659980722098 0.0
45.89934252121707 56.64722056627958 0.0
</DataArray>
</Points>
<Cells>
<DataArray type="Int32" Name="connectivity">
2 22 89
3 31 90
1 13 91
0 4 92
21 2 89
30 3 90
12 1 91
39 0 92
63 66 107
63 107 108
47 65 105
48 67 106
61 65 87
62 67 88
45 66 85
46 68 86
17 18 69
8 9 71
26 27 70
35 36 72
69 18 117
71 9 118
70 27 119
72 36 120
47 105 133
48 106 134
65 61 129
66 45 130
67 62 131
68 46 132
61 87 107
64 68 141
65 47 109
66 63 110
67 48 111
68 64 112
62 88 146
107 40 108
53 69 117
54 71 118
55 70 119
56 72 120
23 24 73
32 33 74
14 15 75
5 6 76
19 20 77
10 11 78
28 29 79
37 38 80
60 86 103
58 85 101
87 40 107
86 44 103
85 43 101
17 69 95
8 71 96
26 70 93
35 72 94
53 77 97
54 78 99
55 79 98
56 80 100
69 45 135
71 46 136
70 47 133
72 48 134
68 108 141
83 62 109
84 64 111
64 84 112
63 82 110
49 73 102
51 75 101
50 74 104
52 76 103
47 83 109
82 43 110
48 84 111
84 44 112
16 17 95
7 8 96
25 26 93
34 35 94
45 85 135
46 86 136
23 73 121
32 74 122
14 75 123
5 76 124
77 20 125
78 11 126
79 29 127
80 38 128
74 59 104
73 57 102
76 60 103
75 58 101
77 49 97
79 50 98
78 51 99
80 52 100
22 23 121
31 32 122
13 14 123
4 5 124
20 21 125
11 12 126
29 30 127
38 39 128
95 69 135
96 71 136
93 70 133
94 72 134
89 22 121
90 31 122
91 13 123
92 4 124
21 89 125
12 91 126
30 90 127
39 92 128
97 49 102
99 51 101
98 50 104
100 52 103
62 83 131
61 81 129
81 61 130
82 63 132
47 70 139
69 53 137
70 55 139
45 69 137
48 72 140
71 54 138
72 56 140
46 71 138
79 55 119
80 56 120
77 53 117
78 54 118
37 80 120
28 79 119
10 78 118
19 77 117
75 15 115
76 6 116
73 24 113
74 33 114
58 75 115
60 76 116
57 73 113
59 74 114
41 105 129
105 65 129
42 106 131
106 67 131
104 59 106
102 57 105
81 41 129
45 81 130
83 42 131
46 82 132
61 107 130
107 66 130
63 108 132
108 68 132
42 104 106
41 102 105
73 49 121
74 50 122
75 51 123
49 77 125
76 52 124
51 78 126
50 79 127
52 80 128
85 66 110
43 85 110
86 68 112
44 86 112
43 99 101
41 97 102
44 100 103
42 98 104
87 65 109
62 87 109
88 67 111
64 88 111
81 45 137
82 46 138
83 47 139
84 48 140
41 81 142
43 82 143
42 83 144
44 84 145
54 99 143
53 97 142
56 100 145
55 98 144
85 58 135
86 60 136
81 137 142
82 138 143
83 139 144
84 140 145
49 89 121
89 49 125
50 90 122
51 91 123
90 50 127
91 51 126
52 92 124
92 52 128
137 53 142
138 54 143
139 55 144
140 56 145
25 93 113
34 94 114
93 57 113
94 59 114
16 95 115
7 96 116
95 58 115
96 60 116
105 57 133
106 59 134
24 25 113
33 34 114
15 16 115
6 7 116
18 19 117
9 10 118
27 28 119
36 37 120
40 88 141
40 87 146
88 40 146
88 64 141
57 93 133
59 94 134
58 95 135
60 96 136
87 62 146
98 42 144
97 41 142
100 44 145
99 43 143
108 40 141
</DataArray>
<DataArray type="Int32" Name="offsets">
3
6
9
12
15
18
21
24
27
30
33
36
39
42
45
48
51
54
57
60
63
66
69
72
75
78
81
84
87
90
93
96
99
102
105
108
111
114
117
120
123
126
129
132
135
138
141
144
147
150
153
156
159
162
165
168
171
174
177
180
183
186
189
192
195
198
201
204
207
210
213
216
219
222
225
228
231
234
237
240
243
246
249
252
255
258
261
264
267
270
273
276
279
282
285
288
291
294
297
300
303
306
309
312
315
318
321
324
327
330
333
336
339
342
345
348
351
354
357
360
363
366
369
372
375
378
381
384
387
390
393
396
399
402
405
408
411
414
417
420
423
426
429
432
435
438
441
444
447
450
453
456
459
462
465
468
471
474
477
480
483
486
489
492
495
498
501
504
507
510
513
516
519
522
525
528
531
534
537
540
543
546
549
552
555
558
561
564
567
570
573
576
579
582
585
588
591
594
597
600
603
606
609
612
615
618
621
624
627
630
633
636
639
642
645
648
651
654
657
660
663
666
669
672
675
678
681
684
687
690
693
696
699
702
705
708
711
714
717
720
723
726
729
732
735
738
741
744
747
750
753
756
</DataArray>
<DataArray type="UInt8" Name="types">
5
5
5
5
5
5
5
5
5
5
5
5
5
5
5
5
5
5
5
5
5
5
5
5
5
5
5
5
5
5
5
5
5
5
5
5
5
5
5
5
5
5
5
5
5
5
5
5
5
5
5
5
5
5
5
5
5
5
5
5
5
5
5
5
5
5
5
5
5
5
5
5
5
5
5
5
5
5
5
5
5
5
5
5
5
5
5
5
5
5
5
5
5
5
5
5
5
5
5
5
5
5
5
5
5
5
5
5
5
5
5
5
5
5
5
5
5
5
5
5
5
5
5
5
5
5
5
5
5
5
5
5
5
5
5
5
5
5
5
5
5
5
5
5
5
5
5
5
5
5
5
5
5
5
5
5
5
5
5
5
5
5
5
5
5
5
5
5
5
5
5
5
5
5
5
5
5
5
5
5
5
5
5
5
5
5
5
5
5
5
5
5
5
5
5
5
5
5
5
5
5
5
5
5
5
5
5
5
5
5
5
5
5
5
5
5
5
5
5
5
5
5
5
5
5
5
5
5
5
5
5
5
5
5
5
5
5
5
5
5
5
5
5
5
5
5
5
5
5
5
5
5
</DataArray>
</Cells>
<PointData Scalars="solution">
<DataArray type="Float64" Name="Real part" format="ascii">
22.0
2.0
2.0
22.0
19.01332957571193
16.268515721395023
13.935595506966248
12.030075945299371
10.458325328004399
9.02943211857138
7.551950476478806
5.892053104453463
4.0149977686929095
2.0
2.0
2.0
2.0
2.0
2.0
2.0
2.0
2.0
4.013412217758188
5.888469352023662
7.546270546657123
9.023036473748254
10.45039657956844
12.02415076695089
13.928256031046574
16.26417831599279
19.011459828878323
22.0
22.0
22.0
22.0
22.0
22.0
22.0
22.0
22.0
10.636406464227408
7.254672083973411
14.0003339898344
7.524732344773071
14.338377520890607
6.2450221270220485
10.452905334667072
10.346476214995837
15.646390819193359
5.363235756966119
17.029355883632814
5.364100261960696
17.029230721996402
4.99765401045446
8.445914636431938
12.746285994141585
17.56800100789331
8.438923811300704
5.001768769768667
17.561679374460404
12.757400194318546
8.449035342504136
11.604662992108425
9.430467513753015
12.644066354425064
9.36740256647883
7.987274894628199
13.432724856805175
11.373211145264444
4.219513222353833
10.941647210955184
9.914081427444469
18.710834539070387
6.927333138781769
19.068319059706436
3.975616854381753
14.78787778921036
4.007770427410277
6.912151215959343
14.810278657950018
19.021183975617774
6.903061346387018
9.01110857372634
11.997210518117527
14.680578758113146
6.744403786968061
12.278782557013734
10.094719032003146
11.98952581069441
4.011136185154205
19.015691265570698
4.012475132140952
19.0171767476517
9.444854285060687
19.4989084028229
3.6861946251029027
11.522436831607799
5.8985008093605975
14.740977760001467
6.962661848674826
16.254132069989126
5.872304743480247
7.132578125534047
14.531573039069187
16.172272934618302
8.646189879692288
15.124617862185884
9.19894975925677
10.512091010826298
10.649587074597793
8.20014801054549
13.666488685910823
12.934135478449777
8.29852861466841
19.99985397306327
3.347842799863152
12.939012781654931
3.459701514246542
8.39893370100877
12.792873433047497
19.83517380799302
5.523973059229234
19.598269777925907
3.618507868753824
16.798783561744315
3.617610277687069
5.526936469421078
16.79532899975772
19.599331931458785
8.173773368226646
7.666654705059642
13.005625563696462
10.174546118629397
9.55749695174486
17.242251590949873
5.216385292953828
11.335638119512712
5.5915824421285985
9.406198675443028
11.573519204287505
16.688125526898258
11.404009382448551
6.214138487693052
8.051776332762222
13.263716970952391
15.80509582422342
11.074282513422121
</DataArray>
<DataArray type="Float64" Name="Imag part" format="ascii">
0.0
0.0
0.0
0.0
0.0
0.0
0.0
0.0
0.0
0.0
0.0
0.0
0.0
0.0
0.0
0.0
0.0
0.0
0.0
0.0
0.0
0.0
0.0
0.0
0.0
0.0
0.0
0.0
0.0
0.0
0.0
0.0
0.0
0.0
0.0
0.0
0.0
0.0
0.0
0.0
0.0
0.0
0.0
0.0
0.0
0.0
0.0
0.0
0.0
0.0
0.0
0.0
0.0
0.0
0.0
0.0
0.0
0.0
0.0
0.0
0.0
0.0
0.0
0.0
0.0
0.0
0.0
0.0
0.0
0.0
0.0
0.0
0.0
0.0
0.0
0.0
0.0
0.0
0.0
0.0
0.0
0.0
0.0
0.0
0.0
0.0
0.0
0.0
0.0
0.0
0.0
0.0
0.0
0.0
0.0
0.0
0.0
0.0
0.0
0.0
0.0
0.0
0.0
0.0
0.0
0.0
0.0
0.0
0.0
0.0
0.0
0.0
0.0
0.0
0.0
0.0
0.0
0.0
0.0
0.0
0.0
0.0
0.0
0.0
0.0
0.0
0.0
0.0
0.0
0.0
0.0
0.0
0.0
0.0
0.0
0.0
0.0
0.0
0.0
0.0
0.0
0.0
0.0
0.0
0.0
0.0
0.0
</DataArray>
</PointData>
</Piece>
</UnstructuredGrid>
</VTKFile>
