<VTKFile type="UnstructuredGrid" version="1.0" byte_order="LittleEndian" header_type="UInt64">
<UnstructuredGrid>
<Piece NumberOfPoints="21" NumberOfCells="32">
<Points>
<DataArray NumberOfComponents="3" type="Float64">
0.0 0.0 0.0
100.0 0.0 0.0
100.0 100.0 0.0
0.0 100.0 0.0
50.0 75.0 0.0
25.0 50.0 0.0
50.0 25.0 0.0
75.0 50.0 0.0
32.32233042914035 67.67766948846773 0.0
32.32233051288345 32.32233042778918 0.0
67.67766957630056 32.32233051697318 0.0
67.67766948437799 67.67766957494939 0.0
49.99999999982369 0.0 0.0
100.0 49.99999999982369 0.0
50.00000000025812 100.0 0.0
0.0 50.00000000025812 0.0
50.00000000056342 50.00000000028359 0.0
61.61050407334157 53.2907637419151 0.0
54.24908035564447 39.33014537876373 0.0
45.57700908406805 60.38399659317263 0.0
40.23370917969042 43.81063739860836 0.0
</DataArray>
</Points>
<Cells>
<DataArray type="Int32" Name="connectivity">
0 12 9
0 9 15
12 1 10
1 13 10
13 2 11
11 2 14
8 14 3
15 8 3
8 4 14
11 14 4
15 5 8
9 5 15
12 6 9
12 10 6
10 13 7
7 13 11
10 7 17
10 17 18
6 18 20
11 4 19
17 11 19
19 5 20
9 6 20
8 5 19
6 10 18
7 11 17
5 9 20
4 8 19
18 16 20
17 16 18
16 19 20
16 17 19
</DataArray>
<DataArray type="Int32" Name="offsets">
3
6
9
12
15
18
21
24
27
30
33
36
39
42
45
48
51
54
57
60
63
66
69
72
75
78
81
84
87
90
93
96
</DataArray>
<DataArray type="UInt8" Name="types">
5
5
5
5
5
5
5
5
5
5
5
5
5
5
5
5
5
5
5
5
5
5
5
5
5
5
5
5
5
5
5
5
</DataArray>
</Cells>
<PointData Scalars="solution">
<DataArray type="Float64" Name="Real part" format="ascii">
22.0
2.0
2.0
22.0
9158.320563746669
8926.918300626006
9284.069107865875
8374.984364382835
7524.366682412065
7422.063144369751
7495.225966787591
7699.185593408908
2457.848300217097
2.0
2413.3798870185155
22.0
21502.556900571348
18439.824975635733
18155.15354883145
20190.75737358354
18863.544620921606
</DataArray>
<DataArray type="Float64" Name="Imag part" format="ascii">
0.0
0.0
0.0
0.0
0.0
0.0
0.0
0.0
0.0
0.0
0.0
0.0
0.0
0.0
0.0
0.0
0.0
0.0
0.0
0.0
0.0
</DataArray>
</PointData>
</Piece>
</UnstructuredGrid>
</VTKFile>
