<VTKFile type="UnstructuredGrid" version="1.0" byte_order="LittleEndian" header_type="UInt64">
<UnstructuredGrid>
<Piece NumberOfPoints="21" NumberOfCells="32">
<Points>
<DataArray NumberOfComponents="3" type="Float64">
0.0 0.0 0.0
100.0 0.0 0.0
100.0 100.0 0.0
0.0 100.0 0.0
50.0 75.0 0.0
25.0 50.0 0.0
50.0 25.0 0.0
75.0 50.0 0.0
32.32233042914035 67.67766948846773 0.0
32.32233051288345 32.32233042778918 0.0
67.67766957630056 32.32233051697318 0.0
67.67766948437799 67.67766957494939 0.0
49.99999999982369 0.0 0.0
100.0 49.99999999982369 0.0
50.00000000025812 100.0 0.0
0.0 50.00000000025812 0.0
50.00000000056342 50.00000000028359 0.0
61.61050407334157 53.2907637419151 0.0
54.24908035564447 39.33014537876373 0.0
45.57700908406805 60.38399659317263 0.0
40.23370917969042 43.81063739860836 0.0
</DataArray>
</Points>
<Cells>
<DataArray type="Int32" Name="connectivity">
0 12 9
0 9 15
12 1 10
1 13 10
13 2 11
11 2 14
8 14 3
15 8 3
8 4 14
11 14 4
15 5 8
9 5 15
12 6 9
12 10 6
10 13 7
7 13 11
10 7 17
10 17 18
6 18 20
11 4 19
17 11 19
19 5 20
9 6 20
8 5 19
6 10 18
7 11 17
5 9 20
4 8 19
18 16 20
17 16 18
16 19 20
16 17 19
</DataArray>
<DataArray type="Int32" Name="offsets">
3
6
9
12
15
18
21
24
27
30
33
36
39
42
45
48
51
54
57
60
63
66
69
72
75
78
81
84
87
90
93
96
</DataArray>
<DataArray type="UInt8" Name="types">
5
5
5
5
5
5
5
5
5
5
5
5
5
5
5
5
5
5
5
5
5
5
5
5
5
5
5
5
5
5
5
5
</DataArray>
</Cells>
<PointData Scalars="solution">
<DataArray type="Float64" Name="Real part" format="ascii">
22.0
2.0
2.0
22.0
1198.1234344653394
1178.9052260861326
1214.382727672525
1091.071220832297
991.081196437477
978.047361681741
976.433861934072
1002.9215909079228
322.08134356207
2.0
316.2560331199038
22.0
2810.381667617047
2405.191892213073
2371.128223290315
2641.4842355933797
2471.480273375009
</DataArray>
<DataArray type="Float64" Name="Imag part" format="ascii">
0.0
0.0
0.0
0.0
0.0
0.0
0.0
0.0
0.0
0.0
0.0
0.0
0.0
0.0
0.0
0.0
0.0
0.0
0.0
0.0
0.0
</DataArray>
</PointData>
</Piece>
</UnstructuredGrid>
</VTKFile>
