<VTKFile type="UnstructuredGrid" version="1.0" byte_order="LittleEndian" header_type="UInt64">
<UnstructuredGrid>
<Piece NumberOfPoints="565" NumberOfCells="1048">
<Points>
<DataArray NumberOfComponents="3" type="Float64">
0.0 -0.5 0.0
1.0 -0.5 0.0
1.0 0.5 0.0
0.0 0.5 0.0
0.04999999999989965 -0.5 0.0
0.09999999999981467 -0.5 0.0
0.1499999999997036 -0.5 0.0
0.1999999999995579 -0.5 0.0
0.2499999999994121 -0.5 0.0
0.2999999999992664 -0.5 0.0
0.3499999999991206 -0.5 0.0
0.3999999999989749 -0.5 0.0
0.4499999999988292 -0.5 0.0
0.4999999999986943 -0.5 0.0
0.5499999999988151 -0.5 0.0
0.5999999999989468 -0.5 0.0
0.6499999999990784 -0.5 0.0
0.69999999999921 -0.5 0.0
0.7499999999993417 -0.5 0.0
0.7999999999994734 -0.5 0.0
0.8499999999996051 -0.5 0.0
0.8999999999997368 -0.5 0.0
0.9499999999998684 -0.5 0.0
1.0 -0.4500000000001387 0.0
1.0 -0.4000000000002774 0.0
1.0 -0.3500000000004161 0.0
1.0 -0.3000000000005548 0.0
1.0 -0.2500000000006935 0.0
1.0 -0.2000000000008322 0.0
1.0 -0.1500000000009709 0.0
1.0 -0.1000000000011096 0.0
1.0 -0.05000000000124821 0.0
1.0 -1.376121439022882e-12 0.0
1.0 0.04999999999875171 0.0
1.0 0.09999999999889042 0.0
1.0 0.1499999999990291 0.0
1.0 0.1999999999991677 0.0
1.0 0.2499999999993064 0.0
1.0 0.2999999999994452 0.0
1.0 0.349999999999584 0.0
1.0 0.3999999999997227 0.0
1.0 0.4499999999998613 0.0
0.9499999999997918 0.5 0.0
0.8999999999995836 0.5 0.0
0.8499999999996529 0.5 0.0
0.7999999999999998 0.5 0.0
0.7500000000003466 0.5 0.0
0.7000000000006934 0.5 0.0
0.6500000000010401 0.5 0.0
0.6000000000013869 0.5 0.0
0.5500000000017335 0.5 0.0
0.5000000000020587 0.5 0.0
0.4500000000018723 0.5 0.0
0.4000000000016644 0.5 0.0
0.3500000000014564 0.5 0.0
0.3000000000012483 0.5 0.0
0.2500000000010403 0.5 0.0
0.2000000000008322 0.5 0.0
0.1500000000006241 0.5 0.0
0.100000000000416 0.5 0.0
0.05000000000020799 0.5 0.0
0.0 0.4500000000001387 0.0
0.0 0.4000000000002774 0.0
0.0 0.3500000000004161 0.0
0.0 0.3000000000005548 0.0
0.0 0.2500000000006935 0.0
0.0 0.2000000000008322 0.0
0.0 0.1500000000009709 0.0
0.0 0.1000000000011096 0.0
0.0 0.05000000000124821 0.0
0.0 1.376121439022882e-12 0.0
0.0 -0.04999999999875171 0.0
0.0 -0.09999999999889042 0.0
0.0 -0.1499999999990291 0.0
0.0 -0.1999999999991677 0.0
0.0 -0.2499999999993064 0.0
0.0 -0.2999999999994452 0.0
0.0 -0.349999999999584 0.0
0.0 -0.3999999999997227 0.0
0.0 -0.4499999999998613 0.0
0.5015011705507584 0.001508156582719657 0.0
0.7071428571428761 0.2071428571428397 0.0
0.2928571428571237 -0.207142857142839 0.0
0.7071428571428378 -0.2071428571428763 0.0
0.2928571428571655 0.207142857142884 0.0
0.5000000000000285 0.2803135888501767 0.0
0.7803135888501737 -2.505004894291947e-14 0.0
0.4999999999999742 -0.2803135888501744 0.0
0.2196864111498293 2.988276386455509e-14 0.0
0.8289812646369793 0.328981264636989 0.0
0.8319978061333817 -0.3309868399313245 0.0
0.1690131600686725 -0.3319978061333778 0.0
0.1680021938666276 0.3309868399313145 0.0
0.566986062717783 0.1401567944250815 0.0
0.6401567944250809 -0.06698606271778293 0.0
0.4330139372822169 -0.1401567944250811 0.0
0.3598432055749218 0.06698606271778992 0.0
0.6398786011318797 0.3471536173895081 0.0
0.8471536173895066 -0.1398786011318758 0.0
0.3601213988681212 -0.347153617389501 0.0
0.152846382610492 0.1398786011318764 0.0
0.8459852991288398 0.1396925151782696 0.0
0.6396925151782694 -0.345985299128842 0.0
0.1540147008711609 -0.1396925151782648 0.0
0.3603074848217441 0.345985299128825 0.0
0.4413012504750298 0.166173364726703 0.0
0.6661733647266977 0.05869874952497312 0.0
0.5586987495249728 -0.1661733647266986 0.0
0.3338266352733065 -0.05869874952496668 0.0
0.5343214234729244 0.3856319384725198 0.0
0.8856105906375747 -0.03427238043762294 0.0
0.4656785765270632 -0.3856319384724787 0.0
0.114368061527518 0.03432142347293896 0.0
0.7419880486468834 0.4089271872032752 0.0
0.2571461949877044 -0.3958600093154421 0.0
0.8958600093154474 -0.242853805012296 0.0
0.1041399906845431 0.2428538050122874 0.0
0.8894906209313578 0.2369458544253105 0.0
0.7368824640183318 -0.3895224595867672 0.0
0.1104775404132311 -0.2368824640183236 0.0
0.2631175359816881 0.3895224595867721 0.0
0.5981953737101657 0.2438096602414335 0.0
0.7438096602414286 -0.09819537371016071 0.0
0.4018046262898402 -0.243809660241427 0.0
0.2561903397585744 0.09819537371016522 0.0
0.7456598267621459 0.1116241421651043 0.0
0.6116241421651045 -0.2456598267621449 0.0
0.2543401732378586 -0.1116241421650989 0.0
0.3883758578349126 0.2456598267621465 0.0
0.9004503972088095 0.4020090423547925 0.0
0.9008275852690093 -0.4019231543170843 0.0
0.09807684568291625 -0.4008275852690086 0.0
0.09917241473099316 0.4019231543170853 0.0
0.4359067399905282 0.4028990204227932 0.0
0.9028990204227296 0.06409326000946147 0.0
0.564093260009466 -0.402899020422719 0.0
0.0971009795772742 -0.06409326000946251 0.0
0.7398280348099129 0.296296086969918 0.0
0.796296086969948 -0.2398280348098761 0.0
0.2601719651901164 -0.296296086969942 0.0
0.2037039130300427 0.2398280348098553 0.0
0.7948432312955667 0.2160954194217123 0.0
0.7160954194217097 -0.2948432312955647 0.0
0.2051567687044355 -0.2160954194217055 0.0
0.2839045805783118 0.294843231295559 0.0
0.4944946019697878 0.08759207368678404 0.0
0.5754984182111741 0.05090978657240301 0.0
0.549834120970569 -0.07585069127218684 0.0
0.4247101104207591 -0.04770619355140483 0.0
0.6519524273377183 0.1424993192059454 0.0
0.6424993192059443 -0.151952427337718 0.0
0.34804757266228 -0.1424993192059414 0.0
0.3575006807940578 0.1519524273377247 0.0
0.8170957408684326 0.4131869608065681 0.0
0.1817259028975781 -0.4183880259387096 0.0
0.9183880259386902 -0.3182740971024239 0.0
0.08161197406131217 0.3182740971024201 0.0
0.9183880259388462 0.3182740971023709 0.0
0.8211813651170661 -0.4171249234302791 0.0
0.08287507656971924 -0.3211813651170592 0.0
0.1788186348829812 0.4171249234303209 0.0
0.5148430472122102 0.1970723395183637 0.0
0.7001511906722514 -0.01518085008272597 0.0
0.4848191499172735 -0.200151190672252 0.0
0.2974517782697733 0.01621128771999189 0.0
0.609383713593149 0.4184748968380033 0.0
0.390616286406847 -0.4184748968380093 0.0
0.9189012345446675 -0.1090525727040235 0.0
0.08152510316199223 0.1093837135931525 0.0
0.9267032118385383 0.1577304291015086 0.0
0.657730429101523 -0.4267032118385277 0.0
0.0732967881614673 -0.1577304291015161 0.0
0.3422695708985012 0.4267032118385818 0.0
0.8215422551712324 0.06912882742954089 0.0
0.4308711725704916 0.3215422551712763 0.0
0.5691288274295436 -0.3215422551712268 0.0
0.1784577448287701 -0.06912882742953647 0.0
0.4325419913433242 0.03897574291465906 0.0
0.567592639909894 0.3179431903460161 0.0
0.8179431903459795 -0.06759263990990654 0.0
0.4324073600900921 -0.3179431903459745 0.0
0.1820568096540233 0.06759263990991193 0.0
0.6682031601950394 0.2776980060279701 0.0
0.3317968398049752 -0.2776980060279668 0.0
0.7776980060279712 -0.168203160195021 0.0
0.222301993972026 0.1682031601950124 0.0
0.6775726880823154 0.4310620665618315 0.0
0.9310620665618727 -0.1775726880823035 0.0
0.3224273119176947 -0.4310620665618538 0.0
0.06893793343812135 0.1775726880822999 0.0
0.5838569731979645 -0.01817532334114005 0.0
0.4814093102084978 -0.08981073711177373 0.0
0.3707591476812711 0.001456584002319388 0.0
0.4465321259489071 0.2377718003423734 0.0
0.7377718003423692 0.05346787405111826 0.0
0.5534678740511199 -0.2377718003423696 0.0
0.2607974076325098 -0.05287378515723461 0.0
0.4191222524007074 0.1058011332468132 0.0
0.4866977706045416 0.435106668196466 0.0
0.9351066681964151 0.01330222939551362 0.0
0.5133022293955205 -0.4351066681964095 0.0
0.06489333180358574 -0.01330222939551145 0.0
0.4977172705590896 0.3399868579764178 0.0
0.83998574657309 0.002285282701836298 0.0
0.5022827294409415 -0.3399868579764058 0.0
0.1600131420235956 -0.002282729440933826 0.0
0.6985907908937776 0.3431728094391289 0.0
0.3014092091062363 -0.3431728094391519 0.0
0.8431728094391615 -0.1985907908937623 0.0
0.1568271905608272 0.1985907908937591 0.0
0.8399087899273026 0.2710607097526257 0.0
0.7721632508777361 -0.3410030483667979 0.0
0.1589969516331999 -0.2721632508777288 0.0
0.2278367491222704 0.3410030483667815 0.0
0.7590505875598506 0.175639913700033 0.0
0.6756399137000273 -0.2590505875598412 0.0
0.2409494124401605 -0.1756399137000242 0.0
0.3243600862999858 0.2590505875598273 0.0
0.6451856454169069 0.1960156332500146 0.0
0.6960156332500134 -0.1451856454169033 0.0
0.3548143545830966 -0.1960156332500123 0.0
0.3039843667499895 0.1451856454169079 0.0
0.6056562397923356 0.1032447973551521 0.0
0.6033012784031732 -0.1073860526111508 0.0
0.3917453068334772 -0.1020800569552823 0.0
0.6048537357103789 -0.4394694856198121 0.0
0.9394694856198186 0.1048537357103618 0.0
0.06053051438018429 -0.1048537357103657 0.0
0.3951462642897245 0.4394694856198491 0.0
0.6467109705156814 0.005332779070525494 0.0
0.5052114377505786 -0.1469481820575166 0.0
0.941566474887788 -0.4415664748877423 0.0
0.05843352511225744 -0.4415664748877829 0.0
0.05843352511220939 0.4415664748877322 0.0
0.9415664748877549 0.441566474887743 0.0
0.7768897711833143 0.4470619985786631 0.0
0.2316746033344622 -0.4446562253046873 0.0
0.944656225304676 -0.2683253966655641 0.0
0.9442075111696696 0.2677735618238998 0.0
0.05534377469532122 0.268325396665564 0.0
0.7654341916234486 -0.4435477712915792 0.0
0.05645222870841755 -0.2654341916234408 0.0
0.2345658083766137 0.44354777129162 0.0
0.782849122627699 0.3374630804976373 0.0
0.8453405318016183 -0.2737360594166913 0.0
0.2262639405833026 -0.3453405318016124 0.0
0.1546594681983742 0.2737360594166729 0.0
0.5530720498574495 0.4481981223549169 0.0
0.446927950142655 -0.4481981223549404 0.0
0.9481278282041499 -0.05291056095068557 0.0
0.05180187764506188 0.05307204985736193 0.0
0.8506564220916588 0.1943782522786784 0.0
0.6943691965062583 -0.350660970470996 0.0
0.1493390295290035 -0.1943691965062522 0.0
0.3056308034937599 0.350660970470997 0.0
0.5116425718367452 0.1421139470447378 0.0
0.5691390514645963 0.195702593200405 0.0
0.6959578760418788 -0.06928999843292126 0.0
0.4307100015670791 -0.1959578760418781 0.0
[...]
<PointData Scalars="solution">
<DataArray type="Float64" Name="Real part" format="ascii">
0.0
-7.498798913309289e-32
-7.498798913309289e-32
0.0
9.460916826067016e-17
1.7995733195121072e-16
2.476900181539377e-16
2.911770796220103e-16
3.061616997868383e-16
2.911770796227092e-16
2.4769001815526725e-16
1.799573319530946e-16
9.460916826299578e-17
2.5116839759730082e-27
-9.460916825868598e-17
-1.7995733194986007e-16
-2.4769001815323095e-16
-2.911770796218036e-16
-3.061616997868383e-16
-2.9117707962258623e-16
-2.4769001815471953e-16
-1.7995733195190887e-16
-9.460916826109458e-17
-1.9157696688732038e-16
-3.7843667304240005e-16
-5.55978012347917e-16
-7.198293278042699e-16
-8.659560562336068e-16
-9.907600726152097e-16
-1.0911682878649977e-15
-1.1647083184877732e-15
-1.2095693648642449e-15
-1.2246467991473533e-15
-1.2095693648657475e-15
-1.1647083184904116e-15
-1.0911682878683894e-15
-9.907600726189738e-16
-8.659560562373803e-16
-7.198293278077236e-16
-5.559780123507694e-16
-3.784366730444299e-16
-1.9157696688837457e-16
-9.460916826123476e-17
-1.799573319521473e-16
-2.4769001815466535e-16
-2.911770796222732e-16
-3.061616997868383e-16
-2.9117707962268523e-16
-2.4769001815544893e-16
-1.799573319536575e-16
-9.460916826402526e-17
-3.960159933634194e-27
9.460916825742842e-17
1.7995733194890888e-16
2.476900181526262e-16
2.9117707962153103e-16
3.061616997868383e-16
2.911770796227678e-16
2.476900181549786e-16
1.7995733195214656e-16
9.460916826123427e-17
0.0
0.0
0.0
0.0
0.0
0.0
0.0
0.0
0.0
0.0
0.0
0.0
0.0
0.0
0.0
0.0
0.0
0.0
0.0
-0.04715943512715623
-3.8347625808999335
3.8347625808999406
-3.8347625808993424
3.8347625808992505
-5.707366269757508e-13
-4.909580699633775
5.16382820213143e-13
4.909580699633793
-2.25028559975798
-2.2031939324872445
2.199103612230687
2.203193932487434
-1.8479934161851068
-3.770641526354238
1.8479934161851128
3.7706415263541695
-1.7785300699763182
-3.707737895930993
1.7785300699763869
3.7077378959309657
-3.727701864260754
-1.7893150866204792
3.7277018642607906
1.7893150866205363
1.5624510635329116
-4.249072131437366
-1.5624510635329891
4.249072131437317
-0.37619562915751975
-3.273082029095908
0.37619562915778315
3.272525615261149
-1.4093425149667214
1.605181079706433
-2.199589627437338
2.199589627437224
-2.353193565432173
-1.6949720676910365
2.35305970788437
1.6949720676909465
-2.0849612847281493
-4.7603627490145
2.0849612847280814
4.760362749014475
-4.69395488209155
-2.3122087787680754
4.693954882091575
2.3122087787677708
-0.887046561984537
-0.8848835536922283
0.8858591454915067
0.884883553692238
0.5885404153008278
-2.806883032134177
-0.5885404153012126
2.80688303213427
-2.979699501247993
-3.4934937974410802
2.979699501247656
3.493493797441232
-3.737926107302778
-2.936163160110295
3.7379261073028567
2.9361631601102793
0.16641676393182042
-2.2547440718008445
-1.4966078734454606
2.252526134917505
-3.6786914473938124
-3.465899559564565
3.6786914473938643
3.4658995595644932
-1.2288940270220658
1.153070221964169
-1.325605347274021
1.3256053472740792
-1.325605347272056
-1.1605399028155239
1.3250767800781218
1.160539902815117
-0.3792058448872986
-4.75133954183697
0.38511897570569587
4.773213252122276
-0.8036006955060886
0.8036006955060554
-2.297219165532428
2.307365965326967
-1.954866044494215
-0.9547256921032158
1.95486604449433
0.9547256921024292
-4.397511828173429
1.118812729836669
-1.118812729837479
4.397511828173475
2.0409730783340674
-1.115140163405305
-4.449041423242808
1.1151401634057474
4.449041423242826
-2.799571646263125
2.7995716462630154
-4.252784056019224
4.2527840560192764
-0.9650826874561749
-1.7804799462612322
0.9650826874558373
1.7804799462610994
-2.5101355832216106
0.5596755473070978
3.6284377581788627
1.2094457677449069
-4.915084261883253
-1.2094457677455073
4.919835225802458
2.2997365827102136
0.0845095778299227
-1.980932508700643
-0.08450957783038884
1.9809325087006673
0.0345499220653974
-4.221770739387902
-0.03454992206587091
4.221752276597145
-2.2426666036601217
2.2426666036597545
-3.38230465192345
3.382304651923315
-2.7822635165762986
-2.3717653351821415
2.759100283638887
2.3717653351823786
-4.251057379828287
-3.065595343127943
4.251057379828377
3.0655953431279586
-3.2279764789812524
-4.233093759002636
3.2279764789812115
4.233093759002579
-2.920157467115185
-2.85183449833616
2.9843559550995953
-0.5785663884917555
-1.7563133665132311
1.756313366513301
0.578566388490921
-3.982931920743615
-0.14655721899295104
-0.3276277537306687
0.3276277537306868
0.3276277537307107
-0.3276277537308423
-0.8159345283563768
0.8592372231706334
-1.1334825666199164
-1.1445154599962004
1.1334825666198598
-0.8779637865069705
1.1669630357942626
0.8779637865063763
-2.39174802529946
-2.694265009995564
2.309001673490162
2.6942650099956578
-0.26516346405362246
0.26516346405300084
-1.5788482009958131
1.576650372110292
-3.304063177622908
-2.1239942353308354
3.3040597630545623
2.123994235330734
-0.32961581034969445
-1.7190327613664083
-4.6032538789045665
1.7215699020440594
4.603726372164979
-0.9862732311074487
-4.950268674092487
0.9862926546964647
4.9502041781195825
-0.5874182696546422
0.6137514682821108
-0.6642168422546179
0.6642168422546845
-0.6648187263863962
-0.6102539492505339
0.658255701384045
0.6102539492500771
-4.374160761090698
-2.5665940492355652
2.571982459084079
4.374160761090676
-1.0301990020483427
-3.5196721059845286
1.0301990020491048
3.519672105984538
-3.6288588885307362
-3.5494484031993943
3.628858888530565
3.549448403199362
-2.0384969308351737
-4.467568328022438
2.0384969308353384
4.467568328022469
-1.2997858349213394
-0.815846245517949
1.3029793297930616
0.8158462455171456
-1.5116038748591998
-1.5116038748589964
1.567164013560071
1.5116038748590164
-0.7077765249677411
-4.4162244990778765
1.9067065365239226
-1.9067065365245668
4.4162244990779564
-2.8698921718483263
-2.8650968882626584
2.823802394693678
2.865096888262755
-4.252770212298281
4.2527702122982625
-3.321481233019193
3.3223525736144284
-2.942791909243974
1.1652094841974732
-1.1652094841981255
2.942791909244061
-1.3806423749141945
1.3895864691584725
-4.067612397985112
-2.4713913574767172
4.06761521966531
2.4713913574765707
-1.2083015186829404
-2.7296912664857165
-4.039504147788388
2.740178681802607
4.068642265604136
-1.9633937070892047
-1.4863539061597095
-2.801434585515811
1.4863539061595492
2.8014345855157696
0.25115832508844155
-1.3291357747480388
-0.25115832508998864
1.3291357747480501
-1.786218694482367
1.9886225870212493
1.7862186944822611
0.13110629169929047
-3.1653488267024756
-0.13110629169936852
3.165286271966472
-4.793847156062549
1.3260547218368914
-1.3260547218374696
4.792762655176546
-0.7455225349117147
0.7780053235396113
-1.2199327375555102
1.2199327375554199
1.794979131276271
-1.997954041772531
1.997954041772674
0.5803288062212283
-0.5265721825766236
-1.2445126897815555
0.526572182576516
1.245321710139305
-3.4444896927653224
-1.4248646790902026
1.2026237401588822
-2.6906691784061456
1.8801472247529503
3.423776759692669
0.7244652592724847
-1.416879044534801
1.359000757558395
-1.4277388399284665
1.4277388399287032
-1.696864395491114
-3.3359344616507243
-3.9808977225711817
3.335934461650638
3.9808977225712185
-0.6402552384860531
-0.6059478431925923
0.6059478431926179
0.5202142642633121
-0.6059478431923668
-0.5202142642620908
0.60594784319227
0.5202142642617366
2.5672809734533963
4.192172255644806
4.3356824555436555
-1.5994697677940586
1.5410148480342094
0.21819148923897796
0.8376442658723553
-4.699946306060358
-4.984955093176301
-0.7253619351553928
-0.16044957253753717
4.98606136891021
0.4442618643028103
-0.8631734337103261
0.8637586853367323
-0.44426186430320186
3.2189764969910843
-1.4744776165683098
-4.786465367779846
1.4744412048799989
4.786400057717559
-2.9275638931101513
-1.534211254207889
2.927554752767386
1.534211254207495
-3.861522035976593
-2.5285391629356653
3.8827040044468735
1.5771709894184414
-1.9238211073419744
1.9238211073419862
-0.5797882685273058
-4.1194500708528095
0.5797882685272908
4.119415541410037
-0.35598177137594716
-1.223771748868678
0.35598177137604725
1.2237717488687054
0.6309688931413181
-3.898935333517679
-0.6309688931415997
3.898928577580205
-3.840670162928217
1.268828132189064
-1.2688281321897628
3.840669806772591
3.2138270276472354
-1.8145395645477402
-4.25421403711904
0.9142865469887798
-2.8112503019134545
-4.506259699731027
2.8112503019133763
4.506259699730998
-1.514564147053268
1.8736426341951622
1.514564147052758
-1.2755002584021375
1.275500258402079
-2.996344646683614
2.9967580176205892
0.05532088228792661
-1.1608296542547611
1.1604674247659605
-0.055320882289175304
-2.372028779870828
-3.9451888974076517
2.3720287798708632
3.945188897407595
-2.4148948987616414
-1.4590208162794027
2.415367820302971
1.4590208162789016
-0.36411965764155163
0.35098054580218757
0.36411965764156434
-0.35098054580107463
-0.35098054580123167
0.3641196576403281
-0.3641196576403813
0.35098054580090515
-3.7820493427081705
-3.849714688780828
3.782049342708124
3.8497974795354777
-0.6835340889690587
-4.71059642707357
0.6835229079077477
4.7103436555625455
-1.089868902281368
0.6060105418687738
-4.646082623500693
-0.606010541869219
4.645784385204926
-0.5905976105773214
0.5905976105773479
-2.619563797721656
2.610623633281988
2.7258281725500058
-0.45439095279696773
-0.8699075138748597
0.8700618679435371
0.4602604114535185
-0.40807861708107696
-1.5172586152711298
-4.116817180528622
1.5172586152715317
4.116817180528632
-2.517400674361026
-4.525527564760602
2.5174006743609683
4.525527564760544
-0.07225084932506129
-0.9169356946087299
0.9169356946087908
0.07225084932236119
-4.43803618662361
2.4935592488984772
-2.493559248898758
4.438037296861131
-2.79666922073613
2.7966692207359425
-3.894936495570722
3.8949364955707373
-1.861926975164943
-3.4185659978812635
0.8478377413869619
-3.3727580759439832
-3.0791521498665815
3.3494819592735423
3.0791521498664896
4.766016050431945
-3.2095081947188118
-2.44808148144352
3.2095081947186292
2.4480814814436047
-4.660223274202804
1.7106061267786523
-1.7106061267787176
4.6737074749203416
-2.0873268716815083
2.2076214240081713
-2.922484577633948
2.922484577633777
-1.4842708512513116
-2.3488335916392713
1.4781402878741172
2.348833591639172
-2.8632525173940313
-0.39642831393338507
-0.9490216281423041
0.9491066084296425
0.3964283139330331
-0.10252604777614181
0.10252604777611649
0.10252604777609468
-0.10252604777592413
-4.939665286534436
0.7000426678659974
-0.6868123515782688
4.938566330193737
-3.3725608106588445
-4.214387316922555
3.372560810658802
4.214395138779237
0.5827290096957284
2.7061280891122244
-1.0108392590628006
-2.239142375235181
2.224335705203081
1.010839259062809
-1.055087513347946
-1.046499862454359
1.104541057598142
1.0464998624541095
-0.3476410767860665
-3.972628483264358
-3.485792677571862
3.972628483264288
3.4857926775717694
-0.1850906313147956
-2.345813640845857
0.1850906313142049
2.3438844106013237
</DataArray>
<DataArray type="Float64" Name="Imag part" format="ascii">
0.0
0.0
0.0
0.0
0.0
0.0
0.0
0.0
0.0
0.0
0.0
0.0
0.0
0.0
0.0
0.0
0.0
0.0
0.0
0.0
0.0
0.0
0.0
0.0
0.0
0.0
0.0
0.0
0.0
0.0
0.0
0.0
0.0
0.0
0.0
0.0
0.0
0.0
0.0
0.0
0.0
0.0
0.0
0.0
0.0
0.0
0.0
0.0
0.0
0.0
0.0
0.0
0.0
0.0
0.0
0.0
0.0
0.0
0.0
0.0
0.0
0.0
0.0
0.0
0.0
0.0
0.0
0.0
0.0
0.0
0.0
0.0
0.0
0.0
0.0
0.0
0.0
0.0
0.0
0.0
0.0
0.0
0.0
0.0
0.0
0.0
0.0
0.0
0.0
0.0
0.0
0.0
0.0
0.0
0.0
0.0
0.0
0.0
0.0
0.0
0.0
0.0
0.0
0.0
0.0
0.0
0.0
0.0
0.0
0.0
0.0
0.0
0.0
0.0
0.0
0.0
0.0
0.0
0.0
0.0
0.0
0.0
0.0
0.0
0.0
0.0
0.0
0.0
0.0
0.0
0.0
0.0
0.0
0.0
0.0
0.0
0.0
0.0
0.0
0.0
0.0
0.0
0.0
0.0
0.0
0.0
0.0
0.0
0.0
0.0
0.0
0.0
0.0
0.0
0.0
0.0
0.0
0.0
0.0
0.0
0.0
0.0
0.0
0.0
0.0
0.0
0.0
0.0
0.0
0.0
0.0
0.0
0.0
0.0
0.0
0.0
0.0
0.0
0.0
0.0
0.0
0.0
0.0
0.0
0.0
0.0
0.0
0.0
0.0
0.0
0.0
0.0
0.0
0.0
0.0
0.0
0.0
0.0
0.0
0.0
0.0
0.0
0.0
0.0
0.0
0.0
0.0
0.0
0.0
0.0
0.0
0.0
0.0
0.0
0.0
0.0
0.0
0.0
0.0
0.0
0.0
0.0
0.0
0.0
0.0
0.0
0.0
0.0
0.0
0.0
0.0
0.0
0.0
0.0
0.0
0.0
0.0
0.0
0.0
0.0
0.0
0.0
0.0
0.0
0.0
0.0
0.0
0.0
0.0
0.0
0.0
0.0
0.0
0.0
0.0
0.0
0.0
0.0
0.0
0.0
0.0
0.0
0.0
0.0
0.0
0.0
0.0
0.0
0.0
0.0
0.0
0.0
0.0
0.0
0.0
0.0
0.0
0.0
0.0
0.0
0.0
0.0
0.0
0.0
0.0
0.0
0.0
0.0
0.0
0.0
0.0
0.0
0.0
0.0
0.0
0.0
0.0
0.0
0.0
0.0
0.0
0.0
0.0
0.0
0.0
0.0
0.0
0.0
0.0
0.0
0.0
0.0
0.0
0.0
0.0
0.0
0.0
0.0
0.0
0.0
0.0
0.0
0.0
0.0
0.0
0.0
0.0
0.0
0.0
0.0
0.0
0.0
0.0
0.0
0.0
0.0
0.0
0.0
0.0
0.0
0.0
0.0
0.0
0.0
0.0
0.0
0.0
0.0
0.0
0.0
0.0
0.0
0.0
0.0
0.0
0.0
0.0
0.0
0.0
0.0
0.0
0.0
0.0
0.0
0.0
0.0
0.0
0.0
0.0
0.0
0.0
0.0
0.0
0.0
0.0
0.0
0.0
0.0
0.0
0.0
0.0
0.0
0.0
0.0
0.0
0.0
0.0
0.0
0.0
0.0
0.0
0.0
0.0
0.0
0.0
0.0
0.0
0.0
0.0
0.0
0.0
0.0
0.0
0.0
0.0
0.0
0.0
0.0
0.0
0.0
0.0
0.0
0.0
0.0
0.0
0.0
0.0
0.0
0.0
0.0
0.0
0.0
0.0
0.0
0.0
0.0
0.0
0.0
0.0
0.0
0.0
0.0
0.0
0.0
0.0
0.0
0.0
0.0
0.0
0.0
0.0
0.0
0.0
0.0
0.0
0.0
0.0
0.0
0.0
0.0
0.0
0.0
0.0
0.0
0.0
0.0
0.0
0.0
0.0
0.0
0.0
0.0
0.0
0.0
0.0
0.0
0.0
0.0
0.0
0.0
0.0
0.0
0.0
0.0
0.0
0.0
0.0
0.0
0.0
0.0
0.0
0.0
0.0
0.0
0.0
0.0
0.0
0.0
0.0
0.0
0.0
0.0
0.0
0.0
0.0
0.0
0.0
0.0
0.0
0.0
0.0
0.0
0.0
0.0
0.0
0.0
0.0
0.0
0.0
0.0
0.0
0.0
0.0
0.0
0.0
0.0
0.0
0.0
0.0
0.0
0.0
0.0
0.0
0.0
0.0
0.0
0.0
0.0
0.0
0.0
0.0
0.0
0.0
0.0
0.0
0.0
0.0
0.0
0.0
0.0
0.0
0.0
0.0
0.0
0.0
0.0
0.0
0.0
0.0
0.0
0.0
0.0
0.0
0.0
0.0
0.0
0.0
0.0
0.0
0.0
0.0
0.0
0.0
0.0
0.0
</DataArray>
</PointData>
</Piece>
</UnstructuredGrid>
</VTKFile>
