<VTKFile type="UnstructuredGrid" version="1.0" byte_order="LittleEndian" header_type="UInt64">
<UnstructuredGrid>
<Piece NumberOfPoints="22009" NumberOfCells="43504">
<Points>
<DataArray NumberOfComponents="3" type="Float64">
0.0 0.0 0.0
10.0 0.0 0.0
10.0 10.0 0.0
0.0 10.0 0.0
0.078124999999941 0.0 0.0
0.1562499999998863 0.0 0.0
0.2343749999998316 0.0 0.0
0.3124999999997661 0.0 0.0
0.3906249999996789 0.0 0.0
0.4687499999995808 0.0 0.0
0.5468749999995045 0.0 0.0
0.6249999999994498 0.0 0.0
0.703124999999395 0.0 0.0
0.7812499999993404 0.0 0.0
0.8593749999992857 0.0 0.0
0.9374999999992311 0.0 0.0
1.015624999999176 0.0 0.0
1.093749999999122 0.0 0.0
1.171874999999067 0.0 0.0
1.249999999998969 0.0 0.0
1.328124999998784 0.0 0.0
1.406249999998556 0.0 0.0
1.484374999998328 0.0 0.0
1.5624999999981 0.0 0.0
1.640624999997871 0.0 0.0
1.718749999997643 0.0 0.0
1.796874999997415 0.0 0.0
1.874999999997187 0.0 0.0
1.953124999996959 0.0 0.0
2.031249999996731 0.0 0.0
2.109374999996502 0.0 0.0
2.187499999996275 0.0 0.0
2.265624999996046 0.0 0.0
2.343749999995818 0.0 0.0
2.42187499999559 0.0 0.0
2.499999999995362 0.0 0.0
2.578124999995133 0.0 0.0
2.656249999994905 0.0 0.0
2.734374999994677 0.0 0.0
2.812499999994449 0.0 0.0
2.890624999994221 0.0 0.0
2.968749999993992 0.0 0.0
3.046874999993765 0.0 0.0
3.124999999993536 0.0 0.0
3.203124999993308 0.0 0.0
3.28124999999308 0.0 0.0
3.359374999992852 0.0 0.0
3.437499999992624 0.0 0.0
3.515624999992395 0.0 0.0
3.593749999992167 0.0 0.0
3.671874999991939 0.0 0.0
3.749999999991711 0.0 0.0
3.828124999991483 0.0 0.0
3.906249999991255 0.0 0.0
3.984374999991027 0.0 0.0
4.062499999990973 0.0 0.0
4.140624999991091 0.0 0.0
4.21874999999121 0.0 0.0
4.296874999991329 0.0 0.0
4.374999999991448 0.0 0.0
4.453124999991566 0.0 0.0
4.531249999991685 0.0 0.0
4.609374999991804 0.0 0.0
4.687499999991923 0.0 0.0
4.765624999992041 0.0 0.0
4.84374999999216 0.0 0.0
4.921874999992279 0.0 0.0
4.999999999992398 0.0 0.0
5.078124999992516 0.0 0.0
5.156249999992635 0.0 0.0
5.234374999992753 0.0 0.0
5.312499999992872 0.0 0.0
5.390624999992991 0.0 0.0
5.46874999999311 0.0 0.0
5.546874999993229 0.0 0.0
5.624999999993348 0.0 0.0
5.703124999993467 0.0 0.0
5.781249999993586 0.0 0.0
5.859374999993704 0.0 0.0
5.937499999993823 0.0 0.0
6.015624999993942 0.0 0.0
6.09374999999406 0.0 0.0
6.171874999994179 0.0 0.0
6.249999999994298 0.0 0.0
6.328124999994417 0.0 0.0
6.406249999994536 0.0 0.0
6.484374999994654 0.0 0.0
6.562499999994773 0.0 0.0
6.640624999994892 0.0 0.0
6.71874999999501 0.0 0.0
6.796874999995129 0.0 0.0
6.874999999995248 0.0 0.0
6.953124999995367 0.0 0.0
7.031249999995486 0.0 0.0
7.109374999995604 0.0 0.0
7.187499999995723 0.0 0.0
7.265624999995842 0.0 0.0
7.343749999995961 0.0 0.0
7.42187499999608 0.0 0.0
7.499999999996199 0.0 0.0
7.578124999996318 0.0 0.0
7.656249999996437 0.0 0.0
7.734374999996555 0.0 0.0
7.812499999996674 0.0 0.0
7.890624999996793 0.0 0.0
7.968749999996911 0.0 0.0
8.04687499999703 0.0 0.0
8.124999999997149 0.0 0.0
8.203124999997268 0.0 0.0
8.281249999997387 0.0 0.0
8.359374999997506 0.0 0.0
8.437499999997623 0.0 0.0
8.515624999997742 0.0 0.0
8.593749999997861 0.0 0.0
8.67187499999798 0.0 0.0
8.7499999999981 0.0 0.0
8.828124999998218 0.0 0.0
8.906249999998337 0.0 0.0
8.984374999998456 0.0 0.0
9.062499999998575 0.0 0.0
9.140624999998693 0.0 0.0
9.218749999998812 0.0 0.0
9.29687499999893 0.0 0.0
9.37499999999905 0.0 0.0
9.453124999999169 0.0 0.0
9.531249999999288 0.0 0.0
9.609374999999407 0.0 0.0
9.687499999999524 0.0 0.0
9.765624999999643 0.0 0.0
9.843749999999762 0.0 0.0
9.921874999999881 0.0 0.0
10.0 0.078124999999941 0.0
10.0 0.1562499999998863 0.0
10.0 0.2343749999998316 0.0
10.0 0.3124999999997661 0.0
10.0 0.3906249999996789 0.0
10.0 0.4687499999995808 0.0
10.0 0.5468749999995045 0.0
10.0 0.6249999999994498 0.0
10.0 0.703124999999395 0.0
10.0 0.7812499999993404 0.0
10.0 0.8593749999992857 0.0
10.0 0.9374999999992311 0.0
10.0 1.015624999999176 0.0
10.0 1.093749999999122 0.0
10.0 1.171874999999067 0.0
10.0 1.249999999998969 0.0
10.0 1.328124999998784 0.0
10.0 1.406249999998556 0.0
10.0 1.484374999998328 0.0
10.0 1.5624999999981 0.0
10.0 1.640624999997871 0.0
10.0 1.718749999997643 0.0
10.0 1.796874999997415 0.0
10.0 1.874999999997187 0.0
10.0 1.953124999996959 0.0
10.0 2.031249999996731 0.0
10.0 2.109374999996502 0.0
10.0 2.187499999996275 0.0
10.0 2.265624999996046 0.0
10.0 2.343749999995818 0.0
10.0 2.42187499999559 0.0
10.0 2.499999999995362 0.0
10.0 2.578124999995133 0.0
10.0 2.656249999994905 0.0
10.0 2.734374999994677 0.0
10.0 2.812499999994449 0.0
10.0 2.890624999994221 0.0
10.0 2.968749999993992 0.0
10.0 3.046874999993765 0.0
10.0 3.124999999993536 0.0
10.0 3.203124999993308 0.0
10.0 3.28124999999308 0.0
10.0 3.359374999992852 0.0
10.0 3.437499999992624 0.0
10.0 3.515624999992395 0.0
10.0 3.593749999992167 0.0
10.0 3.671874999991939 0.0
10.0 3.749999999991711 0.0
10.0 3.828124999991483 0.0
10.0 3.906249999991255 0.0
10.0 3.984374999991027 0.0
10.0 4.062499999990973 0.0
10.0 4.140624999991091 0.0
10.0 4.21874999999121 0.0
10.0 4.296874999991329 0.0
10.0 4.374999999991448 0.0
10.0 4.453124999991566 0.0
10.0 4.531249999991685 0.0
10.0 4.609374999991804 0.0
10.0 4.687499999991923 0.0
10.0 4.765624999992041 0.0
10.0 4.84374999999216 0.0
10.0 4.921874999992279 0.0
10.0 4.999999999992398 0.0
10.0 5.078124999992516 0.0
10.0 5.156249999992635 0.0
10.0 5.234374999992753 0.0
10.0 5.312499999992872 0.0
10.0 5.390624999992991 0.0
10.0 5.46874999999311 0.0
10.0 5.546874999993229 0.0
10.0 5.624999999993348 0.0
10.0 5.703124999993467 0.0
10.0 5.781249999993586 0.0
10.0 5.859374999993704 0.0
10.0 5.937499999993823 0.0
10.0 6.015624999993942 0.0
10.0 6.09374999999406 0.0
10.0 6.171874999994179 0.0
10.0 6.249999999994298 0.0
10.0 6.328124999994417 0.0
10.0 6.406249999994536 0.0
10.0 6.484374999994654 0.0
10.0 6.562499999994773 0.0
10.0 6.640624999994892 0.0
10.0 6.71874999999501 0.0
10.0 6.796874999995129 0.0
10.0 6.874999999995248 0.0
10.0 6.953124999995367 0.0
10.0 7.031249999995486 0.0
10.0 7.109374999995604 0.0
10.0 7.187499999995723 0.0
10.0 7.265624999995842 0.0
10.0 7.343749999995961 0.0
10.0 7.42187499999608 0.0
10.0 7.499999999996199 0.0
10.0 7.578124999996318 0.0
10.0 7.656249999996437 0.0
10.0 7.734374999996555 0.0
10.0 7.812499999996674 0.0
10.0 7.890624999996793 0.0
10.0 7.968749999996911 0.0
10.0 8.04687499999703 0.0
10.0 8.124999999997149 0.0
10.0 8.203124999997268 0.0
10.0 8.281249999997387 0.0
10.0 8.359374999997506 0.0
10.0 8.437499999997623 0.0
10.0 8.515624999997742 0.0
10.0 8.593749999997861 0.0
10.0 8.67187499999798 0.0
10.0 8.7499999999981 0.0
10.0 8.828124999998218 0.0
10.0 8.906249999998337 0.0
10.0 8.984374999998456 0.0
10.0 9.062499999998575 0.0
10.0 9.140624999998693 0.0
10.0 9.218749999998812 0.0
10.0 9.29687499999893 0.0
10.0 9.37499999999905 0.0
10.0 9.453124999999169 0.0
10.0 9.531249999999288 0.0
10.0 9.609374999999407 0.0
10.0 9.687499999999524 0.0
10.0 9.765624999999643 0.0
10.0 9.843749999999762 0.0
10.0 9.921874999999881 0.0
9.921875 10.0 0.0
9.84375 10.0 0.0
9.765625 10.0 0.0
9.6875 10.0 0.0
9.609375 10.0 0.0
9.53125 10.0 0.0
9.453125 10.0 0.0
9.375 10.0 0.0
9.296875 10.0 0.0
9.21875 10.0 0.0
9.140625 10.0 0.0
9.0625 10.0 0.0
8.984375 10.0 0.0
8.90625 10.0 0.0
8.828125 10.0 0.0
8.75 10.0 0.0
8.671875 10.0 0.0
8.59375 10.0 0.0
8.515625 10.0 0.0
8.4375 10.0 0.0
8.359375 10.0 0.0
8.28125 10.0 0.0
8.203125 10.0 0.0
8.125 10.0 0.0
8.046875 10.0 0.0
7.96875 10.0 0.0
7.890625 10.0 0.0
7.8125 10.0 0.0
7.734375 10.0 0.0
7.65625 10.0 0.0
7.578125 10.0 0.0
7.5 10.0 0.0
7.421875 10.0 0.0
7.34375 10.0 0.0
7.265625 10.0 0.0
7.1875 10.0 0.0
7.109375 10.0 0.0
7.03125 10.0 0.0
6.953125 10.0 0.0
6.875 10.0 0.0
6.796875 10.0 0.0
6.71875 10.0 0.0
6.640625 10.0 0.0
6.5625 10.0 0.0
6.484375 10.0 0.0
6.40625 10.0 0.0
6.328125 10.0 0.0
6.25 10.0 0.0
6.171875 10.0 0.0
6.09375 10.0 0.0
6.015625 10.0 0.0
5.9375 10.0 0.0
5.859375 10.0 0.0
5.78125 10.0 0.0
5.703125 10.0 0.0
5.625 10.0 0.0
5.546875 10.0 0.0
5.46875 10.0 0.0
5.390625 10.0 0.0
5.3125 10.0 0.0
5.234375 10.0 0.0
5.15625 10.0 0.0
5.078125 10.0 0.0
5.0 10.0 0.0
4.921875 10.0 0.0
4.84375 10.0 0.0
4.765625 10.0 0.0
4.6875 10.0 0.0
4.609375 10.0 0.0
4.53125 10.0 0.0
4.453125 10.0 0.0
4.375 10.0 0.0
4.296875 10.0 0.0
4.21875 10.0 0.0
4.140625 10.0 0.0
4.0625 10.0 0.0
3.984375 10.0 0.0
3.90625 10.0 0.0
3.828125 10.0 0.0
3.75 10.0 0.0
3.671875 10.0 0.0
3.59375 10.0 0.0
3.515625 10.0 0.0
3.4375 10.0 0.0
3.359375 10.0 0.0
3.28125 10.0 0.0
3.203125 10.0 0.0
3.125 10.0 0.0
3.046875 10.0 0.0
2.96875 10.0 0.0
2.890625 10.0 0.0
2.8125 10.0 0.0
2.734375 10.0 0.0
2.65625 10.0 0.0
2.578125 10.0 0.0
2.5 10.0 0.0
2.421875 10.0 0.0
2.34375 10.0 0.0
2.265625 10.0 0.0
2.1875 10.0 0.0
2.109375 10.0 0.0
2.03125 10.0 0.0
1.953125 10.0 0.0
1.875 10.0 0.0
1.796875 10.0 0.0
1.71875 10.0 0.0
1.640625 10.0 0.0
1.5625 10.0 0.0
1.484375 10.0 0.0
1.40625 10.0 0.0
1.328125 10.0 0.0
1.25 10.0 0.0
1.171875 10.0 0.0
1.09375 10.0 0.0
1.015625 10.0 0.0
0.9375 10.0 0.0
0.859375 10.0 0.0
0.78125 10.0 0.0
0.703125 10.0 0.0
0.625 10.0 0.0
0.546875 10.0 0.0
0.46875 10.0 0.0
0.390625 10.0 0.0
0.3125 10.0 0.0
0.234375 10.0 0.0
0.15625 10.0 0.0
0.078125 10.0 0.0
0.0 9.921875 0.0
0.0 9.84375 0.0
0.0 9.765625 0.0
0.0 9.6875 0.0
0.0 9.609375 0.0
0.0 9.53125 0.0
0.0 9.453125 0.0
0.0 9.375 0.0
0.0 9.296875 0.0
0.0 9.21875 0.0
0.0 9.140625 0.0
0.0 9.0625 0.0
0.0 8.984375 0.0
0.0 8.90625 0.0
0.0 8.828125 0.0
0.0 8.75 0.0
0.0 8.671875 0.0
0.0 8.59375 0.0
0.0 8.515625 0.0
0.0 8.4375 0.0
0.0 8.359375 0.0
0.0 8.28125 0.0
0.0 8.203125 0.0
0.0 8.125 0.0
0.0 8.046875 0.0
0.0 7.96875 0.0
0.0 7.890625 0.0
0.0 7.8125 0.0
0.0 7.734375 0.0
0.0 7.65625 0.0
0.0 7.578125 0.0
0.0 7.5 0.0
0.0 7.421875 0.0
0.0 7.34375 0.0
0.0 7.265625 0.0
0.0 7.1875 0.0
0.0 7.109375 0.0
0.0 7.03125 0.0
0.0 6.953125 0.0
0.0 6.875 0.0
0.0 6.796875 0.0
0.0 6.71875 0.0
0.0 6.640625 0.0
0.0 6.5625 0.0
0.0 6.484375 0.0
0.0 6.40625 0.0
0.0 6.328125 0.0
0.0 6.25 0.0
0.0 6.171875 0.0
0.0 6.09375 0.0
0.0 6.015625 0.0
0.0 5.9375 0.0
[...]
<PointData Scalars="solution">
<DataArray type="Float64" Name="Real part" format="ascii">
0.0
1000.0
-2000.0
0.0
0.0004768371582020448
0.0038146972656166733
0.012874603271456625
0.030517578124931468
0.05960464477524365
0.10299682617159867
0.16355514526322731
0.2441406249993552
0.3476142883291809
0.47683715820191724
0.6346702575667768
0.8239746093729725
1.0476112365697157
1.3084411621062242
1.609325408931703
1.9531249999951676
2.3427009582455187
2.7809143066320585
3.2706260681041823
3.814697265611084
4.41598892210195
5.077362060525986
5.801677703832382
6.591796874970331
7.4505805968890275
8.380889892537663
9.385585784865414
10.467529296821525
11.629581451355126
12.874603271415458
14.2054557799517
15.624999999913037
17.13609695424865
18.74160766590778
20.444393157839592
22.24731445299327
24.15323257431803
26.16500854476302
28.285503387277526
30.51757812481062
32.8640937803116
35.32791137672962
37.911891937013856
40.61889648411353
43.45178604097778
46.413421630555895
49.50666427579699
52.73437499965031
56.099414825065004
59.60464477499031
63.2529258723754
67.04711914017807
70.9900856013484
75.08468627882753
79.33378219556462
83.74023437450892
88.30690383860959
93.03665161081594
97.93233871407719
102.99682617134258
108.23297500556124
113.64364623968255
119.23170089665568
124.99999999942986
130.95140457095425
137.0887756341782
143.41497421205082
149.93286132752152
156.6452980035394
163.55514526305373
170.66526412901374
177.9785156243686
185.49776077206758
193.22586059505997
201.16567611629486
209.32006835872167
217.69189834528956
226.28402709894763
235.0993156426453
244.1406249993318
253.4108161919562
262.9127502434679
272.6492881768159
282.6232910149497
292.8376197808184
303.2951354973712
313.99869918755735
324.95117187432623
336.1554145806269
347.6142883294087
359.3306541436206
371.3073730462122
383.5473060601326
396.05331420833085
408.82825851375645
421.8749999993585
435.1963996880863
448.795318602889
462.6746177667157
476.837158202516
491.2858009332388
506.0234069818334
521.0528373712492
536.3769531244354
551.9986152643411
567.9206848139156
584.146022796108
600.6774902338674
617.5179481501435
634.6702575678855
652.1372795100424
669.9218749995634
688.0269050593978
706.455230712495
725.2097129818039
744.293212890274
763.7085914608539
783.4587097164939
803.5464286801426
823.9746093747494
844.7461128232635
865.863800048634
887.3305320738103
909.149169921741
931.3225746153763
953.8536071776651
976.7451286315567
999.8168945312502
999.267578125001
998.3520507812524
997.0703125000044
995.4223632812575
993.4082031250118
991.0278320312663
988.2812500000206
985.1684570312755
981.6894531250309
977.8442382812868
973.6328125000432
969.0551757813002
964.1113281250576
958.8012695313156
953.1250000000773
947.0825195313469
940.6738281251219
933.8989257813989
926.7578125001781
919.2504882814595
911.3769531252431
903.1372070315286
894.5312500003165
885.5590820316063
876.2207031253984
866.5161132816927
856.4453125004889
846.0083007817875
835.2050781255881
824.0356445318907
812.5000000006958
800.5981445320028
788.3300781258121
775.6958007821233
762.6953125009368
749.3286132822523
735.5957031260702
721.4965820323898
707.031250001212
692.199707032536
677.0019531263623
661.4379882826908
645.5078125015214
629.2114257828541
612.5488281266889
595.520019533026
578.1250000018649
560.3637695332063
542.2363281270495
523.742675783395
504.88281250220024
485.65673828346337
466.0644531272251
446.10595703348554
425.781250002245
405.0903320335034
384.03320312726066
362.6098632835167
340.8203125022717
318.6645507835258
296.1425781272784
273.2543945335301
250.00000000228056
226.37939453353022
202.3925781272785
178.0395507835259
153.32031250227192
128.23486328351692
102.78320312726066
76.96533203350339
50.78125000224486
24.23095703348565
-2.685546872774921
-29.968261716536517
-57.61718749779948
-85.63232421656335
-114.01367187282813
-142.7612304665945
-171.87499999786178
-201.3549804666302
-231.20117187289975
-261.41357421667
-291.99218749794204
-322.9370117167148
-354.2480468729884
-385.92529296676366
-417.9687499980398
-450.3784179668173
-483.15429687309575
-516.2963867168748
-549.8046874981558
-583.6791992169376
-617.9199218732201
-652.5268554670042
-687.4999999982895
-722.8393554670756
-758.5449218733631
-794.6166992171511
-831.0546874984409
-867.8588867172316
-905.029296873523
-942.565917967316
-980.4687499986103
-1018.7377929674053
-1057.3730468737017
-1096.3745117174994
-1135.7421874987967
-1175.4760742175963
-1215.5761718738972
-1256.042480467699
-1296.8749999990023
-1338.0737304678064
-1379.6386718741114
-1421.5698242179178
-1463.867187499225
-1506.5307617180329
-1549.560546874343
-1592.9565429681538
-1636.7187499994652
-1680.8471679682784
-1725.3417968745925
-1770.202636718408
-1815.4296874997235
-1861.0229492185408
-1906.982421874859
-1953.308105468679
-1999.8173713684082
-1999.2713928222656
-1998.3649253845215
-1997.100830078125
-1995.4819679260254
-1993.5111999511719
-1991.1913871765137
-1988.525390625
-1985.51607131958
-1982.1662902832031
-1978.4789085388184
-1974.456787109375
-1970.1027870178223
-1965.4197692871094
-1960.4105949401855
-1955.078125
-1949.425220489502
-1943.4547424316406
-1937.1695518493652
-1930.572509765625
-1923.6664772033691
-1916.4543151855469
-1908.9388847351074
-1901.123046875
-1893.0096626281738
-1884.6015930175781
-1875.901699066162
-1866.912841796875
-1857.637882232666
-1848.0796813964844
-1838.2411003112793
-1828.125
-1817.7342414855957
-1807.0716857910156
-1796.140193939209
-1784.942626953125
-1773.481845855713
-1761.7607116699219
-1749.7820854187012
-1737.548828125
-1725.0638008117676
-1712.3298645019531
-1699.3498802185059
-1686.126708984375
-1672.6632118225098
-1658.9622497558594
-1645.026683807373
-1630.859375
-1616.4631843566895
-1601.8409729003906
-1586.9956016540527
-1571.929931640625
-1556.6468238830566
-1541.1491394042969
-1525.439739227295
-1509.521484375
-1493.3972358703613
-1477.0698547363281
-1460.5422019958496
-1443.817138671875
-1426.8975257873535
-1409.7862243652344
-1392.4860954284668
-1375.0
-1357.3307991027832
-1339.4813537597656
-1321.4545249938965
-1303.253173828125
-1284.8801612854004
-1266.3383483886719
-1247.6305961608887
-1228.759765625
-1209.728717803955
-1190.5403137207031
-1171.1974143981934
-1151.702880859375
-1132.0595741271973
-1112.2703552246094
-1092.3380851745605
-1072.265625
-1052.055835723877
-1031.7115783691406
-1011.2357139587402
-990.631103515625
-969.9006080627441
-949.0470886230469
-928.0734062194824
-906.982421875
-885.7769966125488
-864.4599914550781
-843.0342674255371
-821.502685546875
-799.868106842041
-778.1333923339844
-756.3014030456543
-734.375
-712.3570442199707
-690.2503967285156
-668.057918548584
-645.782470703125
-623.4269142150879
-600.9941101074219
-578.4869194030762
-555.908203125
-533.2608222961426
-510.5476379394531
-487.77151107788086
-464.935302734375
-442.04187393188477
-419.0940856933594
-396.09479904174805
-373.046875
-349.95317459106445
-326.8165588378906
-303.63988876342773
-280.426025390625
-257.17782974243164
-233.89816284179688
-210.58988571166992
-187.255859375
-163.89894485473633
-140.52200317382812
-117.12789535522461
-93.719482421875
-70.29962539672852
-46.871185302734375
-23.437023162841797
0.0
0.0
0.0
0.0
0.0
0.0
0.0
0.0
0.0
0.0
0.0
0.0
0.0
0.0
0.0
0.0
0.0
0.0
0.0
0.0
0.0
0.0
0.0
0.0
0.0
0.0
0.0
0.0
0.0
0.0
0.0
0.0
0.0
0.0
0.0
0.0
0.0
0.0
0.0
0.0
0.0
0.0
0.0
0.0
0.0
0.0
0.0
0.0
0.0
0.0
0.0
0.0
0.0
0.0
0.0
0.0
0.0
0.0
0.0
0.0
0.0
0.0
0.0
0.0
0.0
0.0
0.0
0.0
0.0
0.0
0.0
0.0
0.0
0.0
0.0
0.0
0.0
0.0
0.0
0.0
0.0
0.0
0.0
0.0
0.0
0.0
0.0
0.0
0.0
0.0
0.0
0.0
0.0
0.0
0.0
0.0
0.0
0.0
0.0
0.0
0.0
0.0
0.0
0.0
0.0
0.0
0.0
0.0
0.0
0.0
0.0
0.0
0.0
0.0
0.0
0.0
0.0
0.0
0.0
0.0
0.0
0.0
0.0
0.0
0.0
0.0
0.0
-250.340478210581
-49.69834643603429
173.63486141021897
-414.684279213546
-703.95269435256
-153.9590901435128
52.614583956264
-787.7918349578597
-110.18032858866007
-10.000353776656503
497.2947646870607
-347.1317973288426
-1137.110356661523
-154.1577543952261
-38.86051918636997
-451.18859390022624
-353.75287668679164
21.39630566834688
275.17448846990004
-56.589269786028055
-185.12854966702992
-728.5511549763595
-1116.4476006374107
215.41406235857897
-434.2345899502259
-54.88212618605269
-275.35329211571917
-41.88869333399282
-571.7839353372494
-71.43603180665221
82.88665022043313
-998.0889537646603
123.09407196731115
8.67025882987861
527.0009917400993
-20.911429612002763
-177.39442661485697
-603.5256556723377
-1348.3552315250674
377.35498491621024
-752.410390037882
-103.12561463673583
102.32293338413082
-592.2940372785479
-397.0291116617537
-123.25239868051945
-192.98620171719045
-2.1465302172971295
-244.84905338411946
698.5800142004565
-1451.4790990643523
-270.2500422010383
-798.3136856477544
-90.80936349880398
-1194.4124368071825
161.33161690022553
-119.41735641061871
-14.835090513015853
341.12644646261856
-326.30551148508937
-1002.3149332845534
-39.126178233173704
-513.7859893296842
286.5170574953974
-734.5063878967317
-249.1529506660023
-398.24572361080925
-15.672685785181613
122.37921948041554
-14.10381461276559
-388.9296678143004
-190.2031456902501
-551.1881848223029
2.4117958011543528
680.2719155275818
-7.673435672700939
-165.56954192355258
-452.6833319755886
-1515.751685293425
528.9792241341958
-1068.0648837918907
-88.65838183471811
-185.34610913099326
37.171769614821386
-602.9981309433895
52.56725281844901
355.07574445754227
-36.883752848958736
-932.2208819498808
-104.83032955400884
-1398.3554620309155
282.59198503009105
-441.2410722120733
-162.07362157715065
-971.8407676611624
127.72652714320334
-228.75894858947368
30.242604561637492
82.35643793474821
-95.60234626048494
-785.7659050426547
-320.9360665796502
-140.66449674942044
28.360090855305273
514.9272569416617
-21.55418766392593
-797.9515191857005
-336.1837810915596
-221.48740999499333
-721.554082138811
-114.67898573285775
-75.9882829034691
-280.13792457397227
-942.8063283123226
-0.4633330242298257
-32.13672610818378
-575.2663347875329
-65.85642060978472
182.3350089185623
-589.1653495474991
-448.82693608881766
-178.85616489805972
-321.30639753997644
-48.89378880531748
-1205.8382248181174
123.67470543626376
98.5510866064493
-6.34878146688191
257.8595543673477
-117.14832373736623
-947.8621098949845
91.11317221532614
-49.26178298907291
-226.65872392707627
-1150.9478065999642
-21.99637432568699
391.8065343384186
-476.17090877715185
-892.5942177188676
49.93065094143998
-535.5840037131888
-66.91293528181843
-1387.034580222573
218.64167413236297
-213.98287189825749
-478.3815397758823
-250.71424885628932
-0.4167850216555126
-157.59797261928873
822.671554972883
-1668.1355521483981
-34.630526102912974
83.73666666372362
-1096.0354523609678
275.7017307110151
-4.516377205664773
472.6217264557582
-275.9798968334957
-1187.9809563834915
10.456618922886305
681.4672802998084
-9.313254278502441
-101.8747275960726
-610.2020724494363
-1594.25759717637
445.45866968378834
-827.6360678809199
7.731313067764631
382.64629175375467
-37.664416407030664
-632.0453583975345
291.2913924666888
-622.7935823528395
-139.3087605357835
-669.91959916588
-211.00392750196
-491.2741766775465
-49.9812492437983
89.88050121932389
-120.7544257933394
38.22045720249892
-545.5580333843158
47.88625724348586
195.12615510345063
-65.54534538143452
-145.73856281670845
1.0286955079085751
787.1458820893625
-2.8424777998777317
-127.1505824414397
-354.8182250605877
-1662.631832148997
642.0833839103213
-1284.7948166245442
156.33869083134857
-308.1893480653228
-649.7520083897432
-400.6822609056487
-390.30000647919593
-64.4402305667134
-865.6059933007292
-34.40229733086323
268.31320888698633
-413.8842700969777
-811.2485529944441
-81.50883877787373
-82.70984743636618
109.2559502746004
-81.07275830007183
-1550.8852230890056
355.68601122061665
-593.9852451760532
-3.5869712204050916
614.5714897879502
-268.3985442859986
-1342.8303146164783
-215.44908051109047
-943.3851469972155
-73.20052357103651
-250.20698789019676
-345.1324281147099
-719.9964762258667
-17.87715526419443
395.2174363568251
-381.56634351182487
-992.1927950585855
-122.6857750457166
-1217.6041103448347
205.3368892801942
-285.383322461485
-239.04558117367452
-178.00097924522734
-54.456607765466494
230.37369341035435
-569.774291845788
-401.32666324268325
-27.60846751819767
188.2502296540423
4.585974507431473
-44.73675659615407
-1331.6016713872923
165.42215455092722
-12.152631595959406
-674.7071005375301
-461.4803404924358
-12.772918833332216
476.82525682185775
-440.0102265081185
-1024.7984759476321
-87.02962617342732
-1085.4452469931034
117.33973465089252
-6.791053605784441
-320.98984270382124
-206.66515686124586
-845.5274931054142
-230.924217088809
31.319076234497913
379.38711562409134
-38.473054572931495
-800.1154894638396
-490.93862904305644
10.461269376665882
169.31843522318377
20.099414112835866
640.3481535401651
-11.036483085275485
-740.7311792734397
-286.6201648475388
100.8630900632367
-471.48749064251115
61.65694187096232
66.54443987680474
-297.2620023526108
-26.4899589220599
28.294085999744993
44.314972662055816
493.17292419126625
-17.71428201217967
-937.7340796052308
-338.7865109513904
-351.2862926432994
-853.1294265986467
-275.35142598965575
-2.136422733896481
567.7466244258371
-245.93102214590516
-1319.679179546014
-5.474351932311319
-341.2320057642584
596.9018587266443
-1248.3531029425756
-147.24059328927152
-160.9102204595934
-1244.7914134729806
-27.71797634505542
16.09906522465495
-97.59735996278494
-127.9890643324112
-544.0545704187866
-454.7044165297121
2.321388723207491
66.65189163238273
-396.2131761282077
-191.83392726678915
-183.84488125101052
-225.21796608400223
-698.4406651712279
-623.3970049904656
-83.65476074517397
-118.78585349841308
-19.51297708308104
-19.854369611916013
6.2963186836276295
769.5880746173134
-4.934901910193228
-82.4637827160668
-529.0318118735512
-1693.4410963945643
514.3925968202886
-984.024448459606
-108.1476515871066
-119.32692065258115
-894.1405502763707
-52.4771955226336
-1509.6816010645148
266.53251711687733
-322.5942365974761
313.87724672238716
-485.47524214070177
-120.2837774845443
-1060.5621611182116
133.96419159960067
-134.76419282616394
64.50763227912931
407.31603343951514
-21.287514765980838
-1054.0244345374317
-158.10288776697027
-1082.8559078289434
173.375540239361
-299.80101539976044
-13.04107289166303
-529.4264386669414
449.7058701698513
-905.5261777273516
-390.40472950069636
-620.0571009789915
4.582108830314599
607.2227991563943
-177.89945351469473
-1431.7781121876126
-87.63828909805247
17.233198264238176
464.0815725836411
-543.0373238967908
30.604567158608063
-17.463690504942747
-28.156763783130266
-694.3655430721356
-406.1263178019437
0.39341296980527135
856.5569971657214
-1.0480085218200144
-100.0901230222024
-267.45101090409736
-1756.5804913182565
735.5269925393166
-1461.240752895078
-758.4278130090514
-627.070319230661
-522.8422703661378
65.09748979609488
238.2121486264491
258.0586100087186
-587.7996265291478
-51.21289629955028
-366.9679767731123
-976.9065457910068
-2.478310282891865
407.9478562418535
-153.06556533203948
88.86363571582706
-886.4024911155926
-145.84808126856274
-149.5893632649568
-1375.0104741351613
-140.90172841574523
-24.221107810186094
261.893769460935
-91.05860196220306
-172.894763957345
-66.8545553397436
105.02179775020997
-151.2694507019176
-261.74009074904745
-691.5302829110681
51.66893598277821
-50.56130442280082
212.17732252436352
-763.6677961708376
-74.37840538667336
-522.9853657873532
-302.9196979716159
-830.5609146720888
-26.276618626679504
-1213.983719382567
106.3595058996716
232.60508038288708
-300.38490375254713
-687.4583519291612
-194.32638770491562
-138.8732713147003
-489.95109599050346
-118.2605545462425
-28.986350044825897
322.7704592474897
-437.09706243619127
-859.702142509075
-261.5588606269707
-726.0317333060867
-82.89458379683485
-86.58375535978013
-31.04835134915845
-559.886031532293
332.4316101472911
-758.1898609400149
-235.0327185128513
-1210.6792128267016
-231.5131263186314
-281.6824881514325
-1061.3747253029824
-1022.6815798892394
62.015484323052746
-30.382328859141694
-186.43937292296806
-792.5396807986156
-57.18239967119401
24.203580635082233
-339.22770324467405
-239.16308029748237
-541.3411966277372
150.46630344598515
-465.25343418773497
29.78890893840401
610.8007592872762
-10.613547080813019
-845.0454437808337
-389.46907016757143
-50.34375354650388
-1584.5146381243637
313.08956272477417
-445.6650934608149
41.40073927468658
296.11527669992597
-611.2747595093861
-164.89097043467223
-0.28902156636606424
699.0924877521758
-203.42891126244632
-1506.8959514430135
69.86879815136716
-52.636131303027945
-1098.692871213354
98.10270131188169
158.58066559415624
-201.29276288142933
-473.6845618367749
-82.55535493392625
-125.50564051858085
-846.9920845968778
-32.63328985611241
-668.2178442933438
28.446440634214625
195.2228165439995
-34.924706981652704
-1433.0104408181687
198.8735942682484
-92.35891497521766
-8.308446274429791
539.0692997750066
-357.0034689454481
-1173.988035137134
3.5860597776862666
825.0996727118112
-2.6249087037216907
-72.73838481014465
-445.4630525033648
-1759.7462557314907
588.1664299722637
-1140.0784687651844
-0.08472404489826377
-96.90188120067786
895.5347690716973
-1800.1425096411708
-6.231510761269831
328.33780905360277
-258.36856650609394
-649.8441874127134
-297.0840731495169
-57.18203861733657
-1665.2135777744743
404.2581889331794
-689.6582720633241
-136.34326872148267
-101.2602106642824
-1335.3273455644314
238.71247175319883
-328.74817844857625
6.988562241461658
298.80928209817665
-28.05193443331598
-1319.2705800672304
139.48160489392214
111.45163652073495
16.241692347517706
559.4161871300322
-18.414841594884027
-685.2582146754647
-85.326476656356
-18.97020664093216
-514.9489921095412
412.0871115381235
-874.9428658978467
-821.0708876111509
-204.15802433286677
-256.95619051137646
-915.4173904646944
-125.76227091805899
-1489.4450730929595
388.7555476342007
-722.2909000564371
-643.2628310168823
18.61562746851959
361.2419458806848
-545.1575583756257
-274.93786914983707
-355.09158755133
-638.3536845550611
-43.007303718823785
-711.7413256223712
-492.6622615706309
-51.63673971174201
233.3743969286471
-65.22859730013991
154.839190813233
-103.71626524664846
-606.1281418000148
-124.92932239880273
-1135.5818279842665
167.32353742030182
-213.15815179889387
-349.54910036574984
-602.1030251234458
-52.45108917298924
-5.569877388650973
191.3113799064003
-348.40739967269934
-215.59881836858162
-102.1459178930865
83.20774358397205
-188.62078017028776
-65.50495107492662
-1217.0322940127646
144.72958919587109
-8.79948421002905
195.9282618296845
-463.849337564699
-69.64093443945464
-1306.2559865424873
183.99372743126264
-125.65857496624528
-16.32287702124463
431.35425610371266
-402.32575618532246
-1017.4885033077942
-360.53736074129966
-771.1456035191723
-98.03857912216313
58.77343257358169
15.293214990452856
721.7857311737171
-6.079070248773357
-693.4467973020476
-306.6030452269006
-12.178420445643091
-10.752485203062369
401.3434958969482
458.50408130396494
-331.36008036107296
-324.7006868489653
-1066.532695110859
-1114.526388077164
-243.32008643103978
-1267.9550244156842
-0.669944097688913
778.9694133347646
-178.13759637163045
-1600.1618728654416
15.214792432575535
-193.12748902295752
-126.28880920725543
-117.6956048021337
-145.8207486115698
-459.99190484961696
-441.23653907025346
-1215.9500880699143
-91.46960445294224
-989.9451694780623
92.68480378347321
29.104967801124076
1.7674588157993618
524.0052481391256
-218.790370393255
-1309.0437349825152
-33.06997289196719
81.30992296295972
-219.13999557652767
-1007.9953028501566
-509.87099021026296
36.96789411797406
445.1848290230449
-27.39326534099245
-858.6674466587759
-290.3703558966438
-407.2255258401963
-509.7289986063523
-2.0199549207054432
-272.7484467585954
701.9508226020149
-1427.5812469991174
-86.7634766044375
-194.64132328629145
-24.053444388938132
325.1444603291462
-383.40190259701666
-917.6054720792583
-64.80887783727415
-452.13906760011093
79.5661875827448
-306.8859116923223
-724.8127530569437
-43.71035256103429
145.17012565714967