<VTKFile type="UnstructuredGrid" version="1.0" byte_order="LittleEndian" header_type="UInt64">
<UnstructuredGrid>
<Piece NumberOfPoints="142" NumberOfCells="242">
<Points>
<DataArray NumberOfComponents="3" type="Float64">
0.0 -0.5 0.0
1.0 -0.5 0.0
1.0 0.5 0.0
0.0 0.5 0.0
0.09999999999981467 -0.5 0.0
0.1999999999995579 -0.5 0.0
0.2999999999992664 -0.5 0.0
0.3999999999989749 -0.5 0.0
0.4999999999986943 -0.5 0.0
0.5999999999989468 -0.5 0.0
0.69999999999921 -0.5 0.0
0.7999999999994734 -0.5 0.0
0.8999999999997368 -0.5 0.0
1.0 -0.4000000000002774 0.0
1.0 -0.3000000000005548 0.0
1.0 -0.2000000000008322 0.0
1.0 -0.1000000000011096 0.0
1.0 -1.376121439022882e-12 0.0
1.0 0.09999999999889042 0.0
1.0 0.1999999999991677 0.0
1.0 0.2999999999994452 0.0
1.0 0.3999999999997227 0.0
0.8999999999995836 0.5 0.0
0.7999999999999998 0.5 0.0
0.7000000000006934 0.5 0.0
0.6000000000013869 0.5 0.0
0.5000000000020587 0.5 0.0
0.4000000000016644 0.5 0.0
0.3000000000012483 0.5 0.0
0.2000000000008322 0.5 0.0
0.100000000000416 0.5 0.0
0.0 0.4000000000002774 0.0
0.0 0.3000000000005548 0.0
0.0 0.2000000000008322 0.0
0.0 0.1000000000011096 0.0
0.0 1.376121439022882e-12 0.0
0.0 -0.09999999999889042 0.0
0.0 -0.1999999999991677 0.0
0.0 -0.2999999999994452 0.0
0.0 -0.3999999999997227 0.0
0.5 0.0 0.0
0.7071428571428761 0.2071428571428397 0.0
0.2928571428571237 -0.207142857142839 0.0
0.7071428571428378 -0.2071428571428763 0.0
0.2928571428571655 0.207142857142884 0.0
0.4931499629732479 0.2759084652632133 0.0
0.7758579074798615 0.01471748323685322 0.0
0.5068500370267552 -0.2759084652631885 0.0
0.2240915347368128 -0.006850037026751361 0.0
0.829497354497417 0.3294973544973352 0.0
0.1705026455025673 -0.3294973544972856 0.0
0.8294973544972736 -0.3294973544974331 0.0
0.1705026455027358 0.3294973544974688 0.0
0.6407101126393295 0.3488660690838698 0.0
0.8488660690842668 0.1407101126393957 0.0
0.8488660690839119 -0.1407101126393424 0.0
0.3592898873606527 -0.3488660690839261 0.0
0.3592052746310588 0.3481751902264462 0.0
0.1511339309160889 0.1407101126393491 0.0
0.640794725369056 -0.3481751902263366 0.0
0.1518248097736567 -0.1407947253690465 0.0
0.566986062717783 0.1401567944250815 0.0
0.6401567944250809 -0.06698606271778293 0.0
0.4330139372822169 -0.1401567944250811 0.0
0.3598432055749218 0.06698606271778992 0.0
0.4383753387593604 0.1616120754402229 0.0
0.6733856581721326 0.07706455602144115 0.0
0.5586987495249728 -0.1661733647266986 0.0
0.3338266352733065 -0.05869874952496668 0.0
0.4664603708642729 0.3901567944253982 0.0
0.890156794425293 0.03353962913578539 0.0
0.5335396291357903 -0.3901567944252826 0.0
0.1098432055747091 -0.03353962913577963 0.0
0.7390736031440492 0.4023348642130154 0.0
0.2609263968558939 -0.4023348642130204 0.0
0.9023348642130026 -0.2390736031441346 0.0
0.09766513578700199 0.2390736031441626 0.0
0.9006094296446142 0.2402985969817035 0.0
0.09944092595726997 -0.2403047640902551 0.0
0.7403047640902588 -0.400559074042723 0.0
0.2596952359098295 0.4005590740428346 0.0
0.604120624923863 0.2452829717179749 0.0
0.7452829717180144 -0.1041206249238761 0.0
0.3958793750761186 -0.2452829717180291 0.0
0.2547170282819876 0.1041206249238827 0.0
0.3847048916132247 0.2505210099668941 0.0
0.615295108386797 -0.2505210099668255 0.0
0.2494789900331728 -0.1152951083867921 0.0
0.588120747423057 0.0231949635900253 0.0
0.9001218934945736 0.4001218934945737 0.0
0.90012189349456 -0.4001218934945606 0.0
0.09987810650543605 -0.4001218934945633 0.0
0.09987810650543236 0.4001218934945684 0.0
0.5700787557216654 0.416751324675935 0.0
0.9167513246759285 -0.07007875572149405 0.0
0.4299212442785445 -0.4167513246759278 0.0
0.08324867532407251 0.07007875572149716 0.0
0.7953061572218628 0.2250016076738915 0.0
0.2060517816309247 -0.2223833510180016 0.0
0.7223833510179993 -0.2939482183690734 0.0
0.277616648982045 0.2939482183691546 0.0
0.7277938243382006 0.301265296621796 0.0
0.2722061756617579 -0.3012652966217914 0.0
0.8012652966217731 -0.2277938243382462 0.0
0.1987347033782558 0.2277938243384005 0.0
0.7523637681936414 0.1266755117910763 0.0
0.496798858381711 0.09171586237945976 0.0
0.5409484080841555 -0.07884397236968946 0.0
0.4211745357457436 -0.04489100427046137 0.0
0.6925394336256443 -0.004654949858402786 0.0
0.6424993192059443 -0.151952427337718 0.0
0.34804757266228 -0.1424993192059414 0.0
0.3545328654627569 0.1535465804772005 0.0
0.6499724943014249 0.4335904515945641 0.0
0.9335904515945685 -0.1499724943013826 0.0
0.3500275056986665 -0.4335904515945749 0.0
0.06640954840543267 0.1499724943013901 0.0
0.9279264586308349 0.1429096677509885 0.0
0.6429278237186524 -0.4277782117388684 0.0
0.07222178826112717 -0.1429278237186279 0.0
0.3570721762816148 0.4277782117389358 0.0
0.8201017201097222 0.420028594277498 0.0
0.1798982798902559 -0.4200285942774371 0.0
0.9200285942774086 -0.3201017201097361 0.0
0.07997140572258285 0.3201017201097496 0.0
0.9200285942777445 0.3201017201098567 0.0
0.8201017201098322 -0.4200285942777228 0.0
0.07997140572226698 -0.3201017201098386 0.0
0.1798982798901245 0.4200285942778233 0.0
0.5161652767795448 0.194374636375644 0.0
0.6516259541526983 0.1560383883487078 0.0
0.4736105247275159 -0.2068803990332493 0.0
0.2931196009667572 0.02638947527248866 0.0
0.5549039654244757 0.3353931250332783 0.0
0.8313685985822984 -0.05966809504952507 0.0
0.4450960345755723 -0.3353931250332708 0.0
0.1646068749667342 0.05490396542443959 0.0
0.4276562509998119 0.3171708331229307 0.0
0.817614240140961 0.0757657555867837 0.0
0.5723437490002279 -0.3171708331228461 0.0
0.1828291668771493 -0.07234374900022135 0.0
0.4379993364193565 0.04719454716911987 0.0
</DataArray>
</Points>
<Cells>
<DataArray type="Int32" Name="connectivity">
1 13 90
3 31 92
0 4 91
2 22 89
12 1 90
39 0 91
30 3 92
21 2 89
63 107 108
63 67 107
64 68 108
66 46 105
64 108 141
105 46 138
53 81 101
58 84 104
55 82 103
56 83 102
81 41 101
84 44 104
82 43 103
83 42 102
66 61 88
65 45 85
67 47 86
68 48 87
87 60 98
86 59 99
85 57 100
65 64 141
26 27 69
8 9 71
17 18 70
35 36 72
71 9 118
70 18 117
72 36 119
69 27 120
45 65 129
61 66 130
67 63 131
47 67 131
68 64 132
48 68 132
42 87 98
43 86 99
44 85 100
88 61 106
46 66 109
64 65 112
106 65 141
107 40 108
54 70 117
59 71 118
60 72 119
57 69 120
23 24 73
14 15 75
32 33 76
5 6 74
19 20 77
10 11 79
37 38 78
28 29 80
40 88 106
26 69 93
8 71 95
17 70 94
35 72 96
54 77 97
60 78 98
59 79 99
57 80 100
69 45 133
70 46 134
71 47 135
72 48 136
54 97 105
62 82 109
82 62 110
83 63 111
84 64 112
49 73 101
50 74 102
51 75 103
52 76 104
82 46 109
43 82 110
42 83 111
44 84 112
62 107 110
107 67 110
63 108 111
108 68 111
25 26 93
7 8 95
16 17 94
34 35 96
85 45 137
86 47 139
87 48 140
23 73 121
14 75 123
32 76 124
5 74 122
77 20 125
79 11 126
78 38 127
80 29 128
73 53 101
76 58 104
74 56 102
75 55 103
77 49 97
78 50 98
79 51 99
80 52 100
97 41 105
88 40 107
62 88 107
13 14 123
31 32 124
4 5 122
22 23 121
11 12 126
20 21 125
38 39 127
29 30 128
93 69 133
94 70 134
95 71 135
96 72 136
90 13 123
92 31 124
91 4 122
89 22 121
21 89 125
12 90 126
39 91 127
30 92 128
97 49 101
98 50 102
99 51 103
100 52 104
61 81 129
81 61 130
63 83 131
64 84 132
45 69 137
69 57 137
46 70 138
47 71 139
48 72 140
70 54 138
71 59 139
72 60 140
73 24 113
53 73 113
77 54 117
80 57 120
78 60 119
79 59 118
19 77 117
28 80 120
37 78 119
10 79 118
74 6 115
56 74 115
75 15 114
76 33 116
55 75 114
58 76 116
105 41 130
66 105 130
81 45 129
41 81 130
83 47 131
84 48 132
106 61 129
65 106 129
73 49 121
49 77 125
74 50 122
75 51 123
76 52 124
50 78 127
51 79 126
52 80 128
81 53 133
45 81 133
82 55 134
46 82 134
83 56 135
47 83 135
84 58 136
48 84 136
65 85 112
67 86 110
85 44 112
68 87 111
86 43 110
87 42 111
41 97 101
42 98 102
43 99 103
44 100 104
66 88 109
88 62 109
49 89 121
89 49 125
50 91 122
51 90 123
90 51 126
91 50 127
52 92 124
92 52 128
25 93 113
93 53 113
16 94 114
34 96 116
7 95 115
94 55 114
96 58 116
95 56 115
24 25 113
15 16 114
6 7 115
33 34 116
18 19 117
9 10 118
36 37 119
27 28 120
57 85 137
59 86 139
60 87 140
53 93 133
55 94 134
56 95 135
58 96 136
54 105 138
108 40 141
40 106 141
</DataArray>
<DataArray type="Int32" Name="offsets">
3
6
9
12
15
18
21
24
27
30
33
36
39
42
45
48
51
54
57
60
63
66
69
72
75
78
81
84
87
90
93
96
99
102
105
108
111
114
117
120
123
126
129
132
135
138
141
144
147
150
153
156
159
162
165
168
171
174
177
180
183
186
189
192
195
198
201
204
207
210
213
216
219
222
225
228
231
234
237
240
243
246
249
252
255
258
261
264
267
270
273
276
279
282
285
288
291
294
297
300
303
306
309
312
315
318
321
324
327
330
333
336
339
342
345
348
351
354
357
360
363
366
369
372
375
378
381
384
387
390
393
396
399
402
405
408
411
414
417
420
423
426
429
432
435
438
441
444
447
450
453
456
459
462
465
468
471
474
477
480
483
486
489
492
495
498
501
504
507
510
513
516
519
522
525
528
531
534
537
540
543
546
549
552
555
558
561
564
567
570
573
576
579
582
585
588
591
594
597
600
603
606
609
612
615
618
621
624
627
630
633
636
639
642
645
648
651
654
657
660
663
666
669
672
675
678
681
684
687
690
693
696
699
702
705
708
711
714
717
720
723
726
</DataArray>
<DataArray type="UInt8" Name="types">
5
5
5
5
5
5
5
5
5
5
5
5
5
5
5
5
5
5
5
5
5
5
5
5
5
5
5
5
5
5
5
5
5
5
5
5
5
5
5
5
5
5
5
5
5
5
5
5
5
5
5
5
5
5
5
5
5
5
5
5
5
5
5
5
5
5
5
5
5
5
5
5
5
5
5
5
5
5
5
5
5
5
5
5
5
5
5
5
5
5
5
5
5
5
5
5
5
5
5
5
5
5
5
5
5
5
5
5
5
5
5
5
5
5
5
5
5
5
5
5
5
5
5
5
5
5
5
5
5
5
5
5
5
5
5
5
5
5
5
5
5
5
5
5
5
5
5
5
5
5
5
5
5
5
5
5
5
5
5
5
5
5
5
5
5
5
5
5
5
5
5
5
5
5
5
5
5
5
5
5
5
5
5
5
5
5
5
5
5
5
5
5
5
5
5
5
5
5
5
5
5
5
5
5
5
5
5
5
5
5
5
5
5
5
5
5
5
5
5
5
5
5
5
5
5
5
5
5
5
5
5
5
5
5
5
5
5
5
5
5
5
5
</DataArray>
</Cells>
<PointData Scalars="solution">
<DataArray type="Float64" Name="Real part" format="ascii">
0.0
0.0
0.0
0.0
0.0
0.0
0.0
0.0
0.0
0.0
0.0
0.0
0.0
0.0
0.0
0.0
0.0
0.0
0.0
0.0
0.0
0.0
0.0
0.0
0.0
0.0
0.0
0.0
0.0
0.0
0.0
0.0
0.0
0.0
0.0
0.0
0.0
0.0
0.0
0.0
0.032982198764533704
-0.006037688574960047
-0.0029024429402267817
-0.005636892836829107
-0.007871764905159909
-0.02266190166162674
0.019137545312931988
-0.0303797507850852
0.02069828839016266
0.021381338589285075
0.020630243373857635
0.025752577244802545
0.025896620298501188
-0.005362501080782707
0.0015894749587525262
0.0052341011367792786
-0.005639169763180979
-0.005437966561738068
0.004021656017949035
-0.005075657918964528
0.0026144677464075444
0.0060769945340775925
0.009705054783547131
-0.0074595210947124195
-0.0068530541635648
-0.0009947404605547088
-0.001992343618564714
0.003167413608377263
0.01416353074797027
0.0012148603905405553
0.02355573887371648
0.0015861864579745433
0.02509254091392212
-0.0044353923769672055
-0.004176705456329479
0.015023686416840541
0.015410587440852162
0.017464317713270092
0.017509631498143347
-0.006999280865969059
-0.007027964540037169
-0.010574310191270052
0.010793343902303085
-0.012387244868673786
0.013860642961022423
-0.008731492221559937
-0.009360711615010146
0.00420959574007274
-0.0035143698018772263
-0.008861374952828373
-0.009544878512397397
-0.008723837455453737
-0.009482693086506271
0.022689863716652495
-0.003681413636713306
0.02305841379347235
-0.002899449472552723
-0.0032887586102921047
-0.0036821613190827665
0.006804477790828421
0.005946584103273859
0.005294267986333726
0.00592420434762798
-0.010682210476346
-0.011323304297187755
0.003361040395538987
-0.0177564210054079
-0.009365189631122615
-0.013286303108695335
-0.017548161517146877
-0.0025331173470781168
0.0021476609730948816
0.009577311926656314
0.007970246793724173
-0.0134102394433938
0.008199959003226608
-0.013128574881801136
-0.02261264803085367
0.012331956784413898
-0.023323090663453935
0.012008460430205868
-0.048801354621464094
-0.04863616452770055
-0.014083688579884816
-0.01396568700446288
-0.01361807839553315
-0.04829219332746693
-0.013617836717403752
-0.048220845114452744
0.0168725073012031
0.012653730924022106
0.05895388357111798
-0.029911537155005215
0.006019797810221301
-0.02854522785927684
0.0040887050775630365
-0.03068188377355187
0.03584777735179352
-0.05497093567816812
0.03417434396114626
-0.06085658564830449
0.013397016582689823
</DataArray>
<DataArray type="Float64" Name="Imag part" format="ascii">
0.0
0.0
0.0
0.0
0.0
0.0
0.0
0.0
0.0
0.0
0.0
0.0
0.0
0.0
0.0
0.0
0.0
0.0
0.0
0.0
0.0
0.0
0.0
0.0
0.0
0.0
0.0
0.0
0.0
0.0
0.0
0.0
0.0
0.0
0.0
0.0
0.0
0.0
0.0
0.0
0.0
0.0
0.0
0.0
0.0
0.0
0.0
0.0
0.0
0.0
0.0
0.0
0.0
0.0
0.0
0.0
0.0
0.0
0.0
0.0
0.0
0.0
0.0
0.0
0.0
0.0
0.0
0.0
0.0
0.0
0.0
0.0
0.0
0.0
0.0
0.0
0.0
0.0
0.0
0.0
0.0
0.0
0.0
0.0
0.0
0.0
0.0
0.0
0.0
0.0
0.0
0.0
0.0
0.0
0.0
0.0
0.0
0.0
0.0
0.0
0.0
0.0
0.0
0.0
0.0
0.0
0.0
0.0
0.0
0.0
0.0
0.0
0.0
0.0
0.0
0.0
0.0
0.0
0.0
0.0
0.0
0.0
0.0
0.0
0.0
0.0
0.0
0.0
0.0
0.0
0.0
0.0
0.0
0.0
0.0
0.0
0.0
0.0
0.0
0.0
0.0
0.0
</DataArray>
</PointData>
</Piece>
</UnstructuredGrid>
</VTKFile>
