<VTKFile type="UnstructuredGrid" version="1.0" byte_order="LittleEndian" header_type="UInt64">
<UnstructuredGrid>
<Piece NumberOfPoints="565" NumberOfCells="1048">
<Points>
<DataArray NumberOfComponents="3" type="Float64">
0.0 -0.5 0.0
1.0 -0.5 0.0
1.0 0.5 0.0
0.0 0.5 0.0
0.04999999999989965 -0.5 0.0
0.09999999999981467 -0.5 0.0
0.1499999999997036 -0.5 0.0
0.1999999999995579 -0.5 0.0
0.2499999999994121 -0.5 0.0
0.2999999999992664 -0.5 0.0
0.3499999999991206 -0.5 0.0
0.3999999999989749 -0.5 0.0
0.4499999999988292 -0.5 0.0
0.4999999999986943 -0.5 0.0
0.5499999999988151 -0.5 0.0
0.5999999999989468 -0.5 0.0
0.6499999999990784 -0.5 0.0
0.69999999999921 -0.5 0.0
0.7499999999993417 -0.5 0.0
0.7999999999994734 -0.5 0.0
0.8499999999996051 -0.5 0.0
0.8999999999997368 -0.5 0.0
0.9499999999998684 -0.5 0.0
1.0 -0.4500000000001387 0.0
1.0 -0.4000000000002774 0.0
1.0 -0.3500000000004161 0.0
1.0 -0.3000000000005548 0.0
1.0 -0.2500000000006935 0.0
1.0 -0.2000000000008322 0.0
1.0 -0.1500000000009709 0.0
1.0 -0.1000000000011096 0.0
1.0 -0.05000000000124821 0.0
1.0 -1.376121439022882e-12 0.0
1.0 0.04999999999875171 0.0
1.0 0.09999999999889042 0.0
1.0 0.1499999999990291 0.0
1.0 0.1999999999991677 0.0
1.0 0.2499999999993064 0.0
1.0 0.2999999999994452 0.0
1.0 0.349999999999584 0.0
1.0 0.3999999999997227 0.0
1.0 0.4499999999998613 0.0
0.9499999999997918 0.5 0.0
0.8999999999995836 0.5 0.0
0.8499999999996529 0.5 0.0
0.7999999999999998 0.5 0.0
0.7500000000003466 0.5 0.0
0.7000000000006934 0.5 0.0
0.6500000000010401 0.5 0.0
0.6000000000013869 0.5 0.0
0.5500000000017335 0.5 0.0
0.5000000000020587 0.5 0.0
0.4500000000018723 0.5 0.0
0.4000000000016644 0.5 0.0
0.3500000000014564 0.5 0.0
0.3000000000012483 0.5 0.0
0.2500000000010403 0.5 0.0
0.2000000000008322 0.5 0.0
0.1500000000006241 0.5 0.0
0.100000000000416 0.5 0.0
0.05000000000020799 0.5 0.0
0.0 0.4500000000001387 0.0
0.0 0.4000000000002774 0.0
0.0 0.3500000000004161 0.0
0.0 0.3000000000005548 0.0
0.0 0.2500000000006935 0.0
0.0 0.2000000000008322 0.0
0.0 0.1500000000009709 0.0
0.0 0.1000000000011096 0.0
0.0 0.05000000000124821 0.0
0.0 1.376121439022882e-12 0.0
0.0 -0.04999999999875171 0.0
0.0 -0.09999999999889042 0.0
0.0 -0.1499999999990291 0.0
0.0 -0.1999999999991677 0.0
0.0 -0.2499999999993064 0.0
0.0 -0.2999999999994452 0.0
0.0 -0.349999999999584 0.0
0.0 -0.3999999999997227 0.0
0.0 -0.4499999999998613 0.0
0.5015011705507584 0.001508156582719657 0.0
0.7071428571428761 0.2071428571428397 0.0
0.2928571428571237 -0.207142857142839 0.0
0.7071428571428378 -0.2071428571428763 0.0
0.2928571428571655 0.207142857142884 0.0
0.5000000000000285 0.2803135888501767 0.0
0.7803135888501737 -2.505004894291947e-14 0.0
0.4999999999999742 -0.2803135888501744 0.0
0.2196864111498293 2.988276386455509e-14 0.0
0.8289812646369793 0.328981264636989 0.0
0.8319978061333817 -0.3309868399313245 0.0
0.1690131600686725 -0.3319978061333778 0.0
0.1680021938666276 0.3309868399313145 0.0
0.566986062717783 0.1401567944250815 0.0
0.6401567944250809 -0.06698606271778293 0.0
0.4330139372822169 -0.1401567944250811 0.0
0.3598432055749218 0.06698606271778992 0.0
0.6398786011318797 0.3471536173895081 0.0
0.8471536173895066 -0.1398786011318758 0.0
0.3601213988681212 -0.347153617389501 0.0
0.152846382610492 0.1398786011318764 0.0
0.8459852991288398 0.1396925151782696 0.0
0.6396925151782694 -0.345985299128842 0.0
0.1540147008711609 -0.1396925151782648 0.0
0.3603074848217441 0.345985299128825 0.0
0.4413012504750298 0.166173364726703 0.0
0.6661733647266977 0.05869874952497312 0.0
0.5586987495249728 -0.1661733647266986 0.0
0.3338266352733065 -0.05869874952496668 0.0
0.5343214234729244 0.3856319384725198 0.0
0.8856105906375747 -0.03427238043762294 0.0
0.4656785765270632 -0.3856319384724787 0.0
0.114368061527518 0.03432142347293896 0.0
0.7419880486468834 0.4089271872032752 0.0
0.2571461949877044 -0.3958600093154421 0.0
0.8958600093154474 -0.242853805012296 0.0
0.1041399906845431 0.2428538050122874 0.0
0.8894906209313578 0.2369458544253105 0.0
0.7368824640183318 -0.3895224595867672 0.0
0.1104775404132311 -0.2368824640183236 0.0
0.2631175359816881 0.3895224595867721 0.0
0.5981953737101657 0.2438096602414335 0.0
0.7438096602414286 -0.09819537371016071 0.0
0.4018046262898402 -0.243809660241427 0.0
0.2561903397585744 0.09819537371016522 0.0
0.7456598267621459 0.1116241421651043 0.0
0.6116241421651045 -0.2456598267621449 0.0
0.2543401732378586 -0.1116241421650989 0.0
0.3883758578349126 0.2456598267621465 0.0
0.9004503972088095 0.4020090423547925 0.0
0.9008275852690093 -0.4019231543170843 0.0
0.09807684568291625 -0.4008275852690086 0.0
0.09917241473099316 0.4019231543170853 0.0
0.4359067399905282 0.4028990204227932 0.0
0.9028990204227296 0.06409326000946147 0.0
0.564093260009466 -0.402899020422719 0.0
0.0971009795772742 -0.06409326000946251 0.0
0.7398280348099129 0.296296086969918 0.0
0.796296086969948 -0.2398280348098761 0.0
0.2601719651901164 -0.296296086969942 0.0
0.2037039130300427 0.2398280348098553 0.0
0.7948432312955667 0.2160954194217123 0.0
0.7160954194217097 -0.2948432312955647 0.0
0.2051567687044355 -0.2160954194217055 0.0
0.2839045805783118 0.294843231295559 0.0
0.4944946019697878 0.08759207368678404 0.0
0.5754984182111741 0.05090978657240301 0.0
0.549834120970569 -0.07585069127218684 0.0
0.4247101104207591 -0.04770619355140483 0.0
0.6519524273377183 0.1424993192059454 0.0
0.6424993192059443 -0.151952427337718 0.0
0.34804757266228 -0.1424993192059414 0.0
0.3575006807940578 0.1519524273377247 0.0
0.8170957408684326 0.4131869608065681 0.0
0.1817259028975781 -0.4183880259387096 0.0
0.9183880259386902 -0.3182740971024239 0.0
0.08161197406131217 0.3182740971024201 0.0
0.9183880259388462 0.3182740971023709 0.0
0.8211813651170661 -0.4171249234302791 0.0
0.08287507656971924 -0.3211813651170592 0.0
0.1788186348829812 0.4171249234303209 0.0
0.5148430472122102 0.1970723395183637 0.0
0.7001511906722514 -0.01518085008272597 0.0
0.4848191499172735 -0.200151190672252 0.0
0.2974517782697733 0.01621128771999189 0.0
0.609383713593149 0.4184748968380033 0.0
0.390616286406847 -0.4184748968380093 0.0
0.9189012345446675 -0.1090525727040235 0.0
0.08152510316199223 0.1093837135931525 0.0
0.9267032118385383 0.1577304291015086 0.0
0.657730429101523 -0.4267032118385277 0.0
0.0732967881614673 -0.1577304291015161 0.0
0.3422695708985012 0.4267032118385818 0.0
0.8215422551712324 0.06912882742954089 0.0
0.4308711725704916 0.3215422551712763 0.0
0.5691288274295436 -0.3215422551712268 0.0
0.1784577448287701 -0.06912882742953647 0.0
0.4325419913433242 0.03897574291465906 0.0
0.567592639909894 0.3179431903460161 0.0
0.8179431903459795 -0.06759263990990654 0.0
0.4324073600900921 -0.3179431903459745 0.0
0.1820568096540233 0.06759263990991193 0.0
0.6682031601950394 0.2776980060279701 0.0
0.3317968398049752 -0.2776980060279668 0.0
0.7776980060279712 -0.168203160195021 0.0
0.222301993972026 0.1682031601950124 0.0
0.6775726880823154 0.4310620665618315 0.0
0.9310620665618727 -0.1775726880823035 0.0
0.3224273119176947 -0.4310620665618538 0.0
0.06893793343812135 0.1775726880822999 0.0
0.5838569731979645 -0.01817532334114005 0.0
0.4814093102084978 -0.08981073711177373 0.0
0.3707591476812711 0.001456584002319388 0.0
0.4465321259489071 0.2377718003423734 0.0
0.7377718003423692 0.05346787405111826 0.0
0.5534678740511199 -0.2377718003423696 0.0
0.2607974076325098 -0.05287378515723461 0.0
0.4191222524007074 0.1058011332468132 0.0
0.4866977706045416 0.435106668196466 0.0
0.9351066681964151 0.01330222939551362 0.0
0.5133022293955205 -0.4351066681964095 0.0
0.06489333180358574 -0.01330222939551145 0.0
0.4977172705590896 0.3399868579764178 0.0
0.83998574657309 0.002285282701836298 0.0
0.5022827294409415 -0.3399868579764058 0.0
0.1600131420235956 -0.002282729440933826 0.0
0.6985907908937776 0.3431728094391289 0.0
0.3014092091062363 -0.3431728094391519 0.0
0.8431728094391615 -0.1985907908937623 0.0
0.1568271905608272 0.1985907908937591 0.0
0.8399087899273026 0.2710607097526257 0.0
0.7721632508777361 -0.3410030483667979 0.0
0.1589969516331999 -0.2721632508777288 0.0
0.2278367491222704 0.3410030483667815 0.0
0.7590505875598506 0.175639913700033 0.0
0.6756399137000273 -0.2590505875598412 0.0
0.2409494124401605 -0.1756399137000242 0.0
0.3243600862999858 0.2590505875598273 0.0
0.6451856454169069 0.1960156332500146 0.0
0.6960156332500134 -0.1451856454169033 0.0
0.3548143545830966 -0.1960156332500123 0.0
0.3039843667499895 0.1451856454169079 0.0
0.6056562397923356 0.1032447973551521 0.0
0.6033012784031732 -0.1073860526111508 0.0
0.3917453068334772 -0.1020800569552823 0.0
0.6048537357103789 -0.4394694856198121 0.0
0.9394694856198186 0.1048537357103618 0.0
0.06053051438018429 -0.1048537357103657 0.0
0.3951462642897245 0.4394694856198491 0.0
0.6467109705156814 0.005332779070525494 0.0
0.5052114377505786 -0.1469481820575166 0.0
0.941566474887788 -0.4415664748877423 0.0
0.05843352511225744 -0.4415664748877829 0.0
0.05843352511220939 0.4415664748877322 0.0
0.9415664748877549 0.441566474887743 0.0
0.7768897711833143 0.4470619985786631 0.0
0.2316746033344622 -0.4446562253046873 0.0
0.944656225304676 -0.2683253966655641 0.0
0.9442075111696696 0.2677735618238998 0.0
0.05534377469532122 0.268325396665564 0.0
0.7654341916234486 -0.4435477712915792 0.0
0.05645222870841755 -0.2654341916234408 0.0
0.2345658083766137 0.44354777129162 0.0
0.782849122627699 0.3374630804976373 0.0
0.8453405318016183 -0.2737360594166913 0.0
0.2262639405833026 -0.3453405318016124 0.0
0.1546594681983742 0.2737360594166729 0.0
0.5530720498574495 0.4481981223549169 0.0
0.446927950142655 -0.4481981223549404 0.0
0.9481278282041499 -0.05291056095068557 0.0
0.05180187764506188 0.05307204985736193 0.0
0.8506564220916588 0.1943782522786784 0.0
0.6943691965062583 -0.350660970470996 0.0
0.1493390295290035 -0.1943691965062522 0.0
0.3056308034937599 0.350660970470997 0.0
0.5116425718367452 0.1421139470447378 0.0
0.5691390514645963 0.195702593200405 0.0
0.6959578760418788 -0.06928999843292126 0.0
0.4307100015670791 -0.1959578760418781 0.0
[...]
<PointData Scalars="solution">
<DataArray type="Float64" Name="Real part" format="ascii">
0.0
0.0
0.0
0.0
0.0
0.0
0.0
0.0
0.0
0.0
0.0
0.0
0.0
0.0
0.0
0.0
0.0
0.0
0.0
0.0
0.0
0.0
0.0
0.0
0.0
0.0
0.0
0.0
0.0
0.0
0.0
0.0
0.0
0.0
0.0
0.0
0.0
0.0
0.0
0.0
0.0
0.0
0.0
0.0
0.0
0.0
0.0
0.0
0.0
0.0
0.0
0.0
0.0
0.0
0.0
0.0
0.0
0.0
0.0
0.0
0.0
0.0
0.0
0.0
0.0
0.0
0.0
0.0
0.0
0.0
0.0
0.0
0.0
0.0
0.0
0.0
0.0
0.0
0.0
0.0
-0.007190362257552446
-0.5784577960714464
0.5785066175178565
-0.5784142474688978
0.5785588462723096
-0.0002233011759230532
-0.7403305681013181
0.000275395529855846
0.7403906718912928
-0.33784285979081047
-0.33058781530177866
0.330334496610768
0.3306458467659718
-0.2792604529298469
-0.5699838321804023
0.2788017274926564
0.5704445165783948
-0.26759053573952707
-0.5581008352118297
0.2676076851509782
0.5581794849129496
-0.5638925432738037
-0.26921114840298377
0.5639442821354385
0.2692784992668392
0.23705620092347968
-0.641400873024952
-0.23571671766706323
0.6410249710661329
-0.0569533180696748
-0.4948388397924403
0.0569942793406842
0.49482435738450053
-0.2136155496765078
0.24174709303181796
-0.33104737868167927
0.3311022595960986
-0.35449675844582357
-0.25522992625022706
0.35404814174003607
0.25528053630196224
-0.3130452484825276
-0.7208435409016194
0.31315893084529833
0.7209053241453484
-0.7075500538440659
-0.3489868386207346
0.7076479744077747
0.34908985565084594
-0.13327640848053415
-0.13270621843209804
0.13265910071212125
0.132728443275743
0.09019648089747807
-0.4240470511257105
-0.0901532384539498
0.4240877692214136
-0.449593536795451
-0.5254510304769593
0.44917194487830214
0.5255445519984822
-0.562827441429129
-0.4430261673812914
0.5627218311826072
0.44311183279610383
0.02544921458887739
-0.3413584289873983
-0.22781402804929823
0.3414317739588471
-0.5535755186824524
-0.5235036468200165
0.5536987389758973
0.5228393130112833
-0.1838843582111009
0.17206556948079382
-0.19793274273552353
0.19796556976444124
-0.19825742885642075
-0.17290628647536224
0.1972529474123556
0.1729366336023953
-0.05651218182985274
-0.7194775572878541
0.056899627466641386
0.7238710404626983
-0.12075641378351107
0.12079383201037235
-0.34693801102118144
0.34848891899053175
-0.29402466039213176
-0.14211118264023329
0.2940370393941527
0.14214585582752745
-0.6674166476335752
0.16983344794691502
-0.16977466722099008
0.6674631217619393
0.30830963543714157
-0.1687680421576167
-0.6688800418547144
0.16880700921860894
0.6689273000819573
-0.4224754194277283
0.42254910842210286
-0.6426650031356707
0.6427559326894486
-0.1452714227540433
-0.2688862349883486
0.14544998161611244
0.268920212482989
-0.38141294173491197
0.08586483990746291
0.552034168733759
0.18265021672482604
-0.7422068919525019
-0.18266753904559294
0.7428106463639259
0.3507485060919288
0.014087420686083065
-0.29947373654622467
-0.014059978623798824
0.2995195307559769
0.006514051813031876
-0.6346317800316413
-0.006408390385962033
0.6346883936563361
-0.33818207980335446
0.33754503201902974
-0.5091685426103327
0.5092505551912274
-0.4184702507499047
-0.3561290841528932
0.41465246190223065
0.35619705478545804
-0.6423460074820804
-0.46111386709746477
0.642427213631967
0.46117614355358094
-0.48676896428856725
-0.6369586183399674
0.4869519876114883
0.6368768432622245
-0.44075534341893396
-0.42980191689578706
0.4512098622073604
-0.08861117191594163
-0.2652439684574849
0.2652747710555151
0.08863900132735303
-0.59916061728225
-0.022705699698281456
-0.04971543738410719
0.049736350517560125
0.049723642326050435
-0.04962195549419333
-0.1228315658448156
0.12920548964227935
-0.17075685935623205
-0.17326417504691055
0.17078497210848725
-0.13250785019844288
0.176476104523765
0.13253197247805718
-0.36106153015520054
-0.4053493204423072
0.34699603633549664
0.4054189943914276
-0.04114398690192317
0.04116271209882206
-0.23938085865948344
0.23906961551791325
-0.49721305114790515
-0.31926618498877807
0.4973456291096048
0.31933741567338797
-0.049188391955862366
-0.25889906643188365
-0.6931833120834374
0.2598750899050138
0.6944944297507085
-0.14903741497541143
-0.7473444348257879
0.14955584521856313
0.7473737402607857
-0.0879788359807477
0.092701153128311
-0.10058458599464348
0.10060098143256653
-0.10078843413442748
-0.09165751783935353
0.09947186563100308
0.09167296913347721
-0.6633769758356973
-0.3892945692172501
0.3909941335586383
0.6636395053881398
-0.1549419897292378
-0.5274346153463328
0.15499262405801667
0.5275180725284082
-0.5490252500699265
-0.5365909650274276
0.5492408234005635
0.5366789512374912
-0.30669926433724776
-0.6699426875958514
0.3067375377800038
0.6700078279150464
-0.1958040561831693
-0.1232790002904032
0.196373758943228
0.1233036667000214
-0.2280268894882504
-0.22784731899565838
0.23570753992452143
0.22788607746077888
-0.10717752739943362
-0.6638379177990689
0.28468883257397243
-0.2846667090703054
0.6638742554498114
-0.4368020729241663
-0.43779285022160896
0.43061190639188957
0.43787137312100866
-0.6423904071313157
0.6425353441423365
-0.501607734142548
0.5021208928191904
-0.4453668504690972
0.17443207340957806
-0.17438041676491406
0.44541666096205645
-0.209571615835221
0.2104905129459714
-0.6150652736341263
-0.3733717377376652
0.6151587246402763
0.3734383200442388
-0.18128798443349933
-0.41356146186783266
-0.6121511773904353
0.4151499455849039
0.6166871313159817
-0.29889066880796744
-0.22488006122527765
-0.42322076086198146
0.2250128316555678
0.4233110540005508
0.036084160644388935
-0.20210422272141687
-0.03606464249236544
0.2021257920212682
-0.2713855970466163
0.30269927851240835
0.2714330998528606
0.018308954919617797
-0.4807172712590516
-0.01826343164665518
0.48076143249560865
-0.7236542465737118
0.201800638136368
-0.201807825916891
0.7235592122680988
-0.11197970715409447
0.11744153044920708
-0.18389771219535575
0.18393242176944039
0.27183432100372557
-0.30357674614109587
0.3036272020433756
0.08620714059098361
-0.07902500179845433
-0.18696512527503692
0.07907568594455278
0.18713838840565244
-0.52145453603301
-0.2175507005487614
0.18002883288297422
-0.4076807218571035
0.28452110158626276
0.5155370276448253
0.1090806311462857
-0.21358686330671792
0.2054050305905843
-0.21541187266334144
0.21544766305359528
-0.25566488059071235
-0.5033168809350198
-0.6020294746814572
0.5034687438242863
0.6021243256515764
-0.09683128124432866
-0.09175559330043287
0.09177040990286647
0.07887880406727793
-0.09197396721923795
-0.07917470527896184
0.09242242516688784
0.0791881311077758
0.3877970346821915
0.6347294347071404
0.6534635094006844
-0.24212513802191699
0.23281919160364237
0.03332572133764718
0.12620674446864688
-0.7085142516722935
-0.7545862597361469
-0.10932477689992239
-0.024915333619482262
0.7541698767482484
0.06801820824875382
-0.13057890073158462
0.1306914197814002
-0.06800328428744147
0.48530046730820814
-0.2235759566771829
-0.7301644752817922
0.22358498089570605
0.7301261900707631
-0.44330096895954546
-0.23360561507907074
0.44336136003429566
0.23366194235792498
-0.5875141344193011
-0.3859476926759594
0.5915645851735122
0.23916342782272323
-0.291929244729301
0.291976914074556
-0.08720381832317525
-0.6286115329083376
0.08726207198388469
0.628671116868581
-0.05368467353920855
-0.1844589160265686
0.05370053408410146
0.18450566632606002
0.0942377256014091
-0.5904654505477938
-0.09416801260097984
0.5905117095932297
-0.5792701676819454
0.19217536634143587
-0.1921119145403682
0.5793149197812114
0.4854005310102243
-0.2751378934588398
-0.649500799499642
0.13840655922851355
-0.4245580000293209
-0.680337043492382
0.4246488837134353
0.6803672359196883
-0.23060786301175043
0.2852855385908511
0.23064934419341213
-0.19407332055375498
0.19413916323383687
-0.45686589087036644
0.45701802657147855
0.008137933780662973
-0.1747436437687264
0.1747225472738647
-0.008122664918736372
-0.3603839415315125
-0.6001050307666278
0.36030118210107703
0.6001981737353331
-0.3666038910040062
-0.22274238060715368
0.366795298744219
0.22279015422763465
-0.05567027228834567
0.05394269295948696
0.05567928613105606
-0.05391857211173325
-0.053692922783365814
0.055411965938971575
-0.05565070056763167
0.05370170906020964
-0.5771651198395544
-0.5849066556134948
0.5772840824088682
0.5852030765201731
-0.10321379801818298
-0.711831022286851
0.10325355034843514
0.7118351006554988
-0.16717714418821486
0.09153014477675771
-0.7027244866139318
-0.09144822043351289
0.7027835161137257
-0.08992990207554055
0.08996182699434772
-0.39678955096409974
0.39549273464463425
0.41182419264951703
-0.06838942174106326
-0.1329108672532801
0.13294827081955074
0.06923409580544646
-0.06296783099794954
-0.23360074027975414
-0.633160337231405
0.23364949465406867
0.633230930083808
-0.3812343451553682
-0.6885488929289175
0.3814679631779717
0.6885113193336924
-0.012080025965004898
-0.13893573714074917
0.13895453930476948
0.012092877793582556
-0.682029644048333
0.3858228031683996
-0.3857918227047961
0.682084915224634
-0.42573861135135344
0.4257699584700872
-0.5927313096308126
0.5928274785367419
-0.2816981697622195
-0.5165477295977728
0.12668636816397497
-0.5097215189766108
-0.46614615250615477
0.5064398579999555
0.4662345347664183
0.7174396037422043
-0.49038344279300233
-0.3728510337381931
0.49056685105048314
0.37292631104713475
-0.7062597041760422
0.2605958674750435
-0.2608156445267815
0.708327378920301
-0.31637867450750246
0.33711111079232237
-0.4464375667803186
0.4465108190676515
-0.22368833078690684
-0.3554802361307923
0.22236009834697706
0.35554228091576856
-0.4321441910100296
-0.060885468323473725
-0.1436638042271167
0.1436866432594093
0.06090091493758988
-0.01477721957536214
0.014788573480953497
0.014779840569510892
-0.014730007027425253
-0.7475029707773777
0.10653845805126826
-0.10445064452962471
0.7474025592290671
-0.5067460593267341
-0.6349005744469011
0.5068375482661247
0.6349937557691322
0.08888787193015081
0.4080962504179242
-0.1527949156145432
-0.340125115359697
0.3378839508053091
0.15288561068952994
-0.16021568188194082
-0.16037462368959848
0.16933083707144686
0.16040111667717866
-0.05418832100278219
-0.6022238398026595
-0.5285020434344252
0.6022891273990955
0.5285611601739747
-0.02797923483538681
-0.3537211963625787
0.02800946945426102
0.35348041107340683
</DataArray>
<DataArray type="Float64" Name="Imag part" format="ascii">
0.0
0.0
0.0
0.0
0.0
0.0
0.0
0.0
0.0
0.0
0.0
0.0
0.0
0.0
0.0
0.0
0.0
0.0
0.0
0.0
0.0
0.0
0.0
0.0
0.0
0.0
0.0
0.0
0.0
0.0
0.0
0.0
0.0
0.0
0.0
0.0
0.0
0.0
0.0
0.0
0.0
0.0
0.0
0.0
0.0
0.0
0.0
0.0
0.0
0.0
0.0
0.0
0.0
0.0
0.0
0.0
0.0
0.0
0.0
0.0
0.0
0.0
0.0
0.0
0.0
0.0
0.0
0.0
0.0
0.0
0.0
0.0
0.0
0.0
0.0
0.0
0.0
0.0
0.0
0.0
0.0
0.0
0.0
0.0
0.0
0.0
0.0
0.0
0.0
0.0
0.0
0.0
0.0
0.0
0.0
0.0
0.0
0.0
0.0
0.0
0.0
0.0
0.0
0.0
0.0
0.0
0.0
0.0
0.0
0.0
0.0
0.0
0.0
0.0
0.0
0.0
0.0
0.0
0.0
0.0
0.0
0.0
0.0
0.0
0.0
0.0
0.0
0.0
0.0
0.0
0.0
0.0
0.0
0.0
0.0
0.0
0.0
0.0
0.0
0.0
0.0
0.0
0.0
0.0
0.0
0.0
0.0
0.0
0.0
0.0
0.0
0.0
0.0
0.0
0.0
0.0
0.0
0.0
0.0
0.0
0.0
0.0
0.0
0.0
0.0
0.0
0.0
0.0
0.0
0.0
0.0
0.0
0.0
0.0
0.0
0.0
0.0
0.0
0.0
0.0
0.0
0.0
0.0
0.0
0.0
0.0
0.0
0.0
0.0
0.0
0.0
0.0
0.0
0.0
0.0
0.0
0.0
0.0
0.0
0.0
0.0
0.0
0.0
0.0
0.0
0.0
0.0
0.0
0.0
0.0
0.0
0.0
0.0
0.0
0.0
0.0
0.0
0.0
0.0
0.0
0.0
0.0
0.0
0.0
0.0
0.0
0.0
0.0
0.0
0.0
0.0
0.0
0.0
0.0
0.0
0.0
0.0
0.0
0.0
0.0
0.0
0.0
0.0
0.0
0.0
0.0
0.0
0.0
0.0
0.0
0.0
0.0
0.0
0.0
0.0
0.0
0.0
0.0
0.0
0.0
0.0
0.0
0.0
0.0
0.0
0.0
0.0
0.0
0.0
0.0
0.0
0.0
0.0
0.0
0.0
0.0
0.0
0.0
0.0
0.0
0.0
0.0
0.0
0.0
0.0
0.0
0.0
0.0
0.0
0.0
0.0
0.0
0.0
0.0
0.0
0.0
0.0
0.0
0.0
0.0
0.0
0.0
0.0
0.0
0.0
0.0
0.0
0.0
0.0
0.0
0.0
0.0
0.0
0.0
0.0
0.0
0.0
0.0
0.0
0.0
0.0
0.0
0.0
0.0
0.0
0.0
0.0
0.0
0.0
0.0
0.0
0.0
0.0
0.0
0.0
0.0
0.0
0.0
0.0
0.0
0.0
0.0
0.0
0.0
0.0
0.0
0.0
0.0
0.0
0.0
0.0
0.0
0.0
0.0
0.0
0.0
0.0
0.0
0.0
0.0
0.0
0.0
0.0
0.0
0.0
0.0
0.0
0.0
0.0
0.0
0.0
0.0
0.0
0.0
0.0
0.0
0.0
0.0
0.0
0.0
0.0
0.0
0.0
0.0
0.0
0.0
0.0
0.0
0.0
0.0
0.0
0.0
0.0
0.0
0.0
0.0
0.0
0.0
0.0
0.0
0.0
0.0
0.0
0.0
0.0
0.0
0.0
0.0
0.0
0.0
0.0
0.0
0.0
0.0
0.0
0.0
0.0
0.0
0.0
0.0
0.0
0.0
0.0
0.0
0.0
0.0
0.0
0.0
0.0
0.0
0.0
0.0
0.0
0.0
0.0
0.0
0.0
0.0
0.0
0.0
0.0
0.0
0.0
0.0
0.0
0.0
0.0
0.0
0.0
0.0
0.0
0.0
0.0
0.0
0.0
0.0
0.0
0.0
0.0
0.0
0.0
0.0
0.0
0.0
0.0
0.0
0.0
0.0
0.0
0.0
0.0
0.0
0.0
0.0
0.0
0.0
0.0
0.0
0.0
0.0
0.0
0.0
0.0
0.0
0.0
0.0
0.0
0.0
0.0
0.0
0.0
0.0
0.0
0.0
0.0
0.0
0.0
0.0
0.0
0.0
0.0
0.0
0.0
0.0
0.0
0.0
0.0
0.0
0.0
0.0
0.0
0.0
0.0
0.0
0.0
0.0
0.0
0.0
0.0
0.0
0.0
0.0
0.0
0.0
0.0
0.0
0.0
0.0
0.0
0.0
0.0
0.0
0.0
0.0
0.0
0.0
0.0
0.0
0.0
0.0
0.0
0.0
0.0
0.0
0.0
0.0
0.0
0.0
0.0
0.0
0.0
0.0
0.0
0.0
0.0
0.0
0.0
0.0
0.0
0.0
0.0
0.0
0.0
0.0
0.0
</DataArray>
</PointData>
</Piece>
</UnstructuredGrid>
</VTKFile>
