<VTKFile type="UnstructuredGrid" version="1.0" byte_order="LittleEndian" header_type="UInt64">
<UnstructuredGrid>
<Piece NumberOfPoints="22009" NumberOfCells="43504">
<Points>
<DataArray NumberOfComponents="3" type="Float64">
0.0 0.0 0.0
10.0 0.0 0.0
10.0 10.0 0.0
0.0 10.0 0.0
0.078124999999941 0.0 0.0
0.1562499999998863 0.0 0.0
0.2343749999998316 0.0 0.0
0.3124999999997661 0.0 0.0
0.3906249999996789 0.0 0.0
0.4687499999995808 0.0 0.0
0.5468749999995045 0.0 0.0
0.6249999999994498 0.0 0.0
0.703124999999395 0.0 0.0
0.7812499999993404 0.0 0.0
0.8593749999992857 0.0 0.0
0.9374999999992311 0.0 0.0
1.015624999999176 0.0 0.0
1.093749999999122 0.0 0.0
1.171874999999067 0.0 0.0
1.249999999998969 0.0 0.0
1.328124999998784 0.0 0.0
1.406249999998556 0.0 0.0
1.484374999998328 0.0 0.0
1.5624999999981 0.0 0.0
1.640624999997871 0.0 0.0
1.718749999997643 0.0 0.0
1.796874999997415 0.0 0.0
1.874999999997187 0.0 0.0
1.953124999996959 0.0 0.0
2.031249999996731 0.0 0.0
2.109374999996502 0.0 0.0
2.187499999996275 0.0 0.0
2.265624999996046 0.0 0.0
2.343749999995818 0.0 0.0
2.42187499999559 0.0 0.0
2.499999999995362 0.0 0.0
2.578124999995133 0.0 0.0
2.656249999994905 0.0 0.0
2.734374999994677 0.0 0.0
2.812499999994449 0.0 0.0
2.890624999994221 0.0 0.0
2.968749999993992 0.0 0.0
3.046874999993765 0.0 0.0
3.124999999993536 0.0 0.0
3.203124999993308 0.0 0.0
3.28124999999308 0.0 0.0
3.359374999992852 0.0 0.0
3.437499999992624 0.0 0.0
3.515624999992395 0.0 0.0
3.593749999992167 0.0 0.0
3.671874999991939 0.0 0.0
3.749999999991711 0.0 0.0
3.828124999991483 0.0 0.0
3.906249999991255 0.0 0.0
3.984374999991027 0.0 0.0
4.062499999990973 0.0 0.0
4.140624999991091 0.0 0.0
4.21874999999121 0.0 0.0
4.296874999991329 0.0 0.0
4.374999999991448 0.0 0.0
4.453124999991566 0.0 0.0
4.531249999991685 0.0 0.0
4.609374999991804 0.0 0.0
4.687499999991923 0.0 0.0
4.765624999992041 0.0 0.0
4.84374999999216 0.0 0.0
4.921874999992279 0.0 0.0
4.999999999992398 0.0 0.0
5.078124999992516 0.0 0.0
5.156249999992635 0.0 0.0
5.234374999992753 0.0 0.0
5.312499999992872 0.0 0.0
5.390624999992991 0.0 0.0
5.46874999999311 0.0 0.0
5.546874999993229 0.0 0.0
5.624999999993348 0.0 0.0
5.703124999993467 0.0 0.0
5.781249999993586 0.0 0.0
5.859374999993704 0.0 0.0
5.937499999993823 0.0 0.0
6.015624999993942 0.0 0.0
6.09374999999406 0.0 0.0
6.171874999994179 0.0 0.0
6.249999999994298 0.0 0.0
6.328124999994417 0.0 0.0
6.406249999994536 0.0 0.0
6.484374999994654 0.0 0.0
6.562499999994773 0.0 0.0
6.640624999994892 0.0 0.0
6.71874999999501 0.0 0.0
6.796874999995129 0.0 0.0
6.874999999995248 0.0 0.0
6.953124999995367 0.0 0.0
7.031249999995486 0.0 0.0
7.109374999995604 0.0 0.0
7.187499999995723 0.0 0.0
7.265624999995842 0.0 0.0
7.343749999995961 0.0 0.0
7.42187499999608 0.0 0.0
7.499999999996199 0.0 0.0
7.578124999996318 0.0 0.0
7.656249999996437 0.0 0.0
7.734374999996555 0.0 0.0
7.812499999996674 0.0 0.0
7.890624999996793 0.0 0.0
7.968749999996911 0.0 0.0
8.04687499999703 0.0 0.0
8.124999999997149 0.0 0.0
8.203124999997268 0.0 0.0
8.281249999997387 0.0 0.0
8.359374999997506 0.0 0.0
8.437499999997623 0.0 0.0
8.515624999997742 0.0 0.0
8.593749999997861 0.0 0.0
8.67187499999798 0.0 0.0
8.7499999999981 0.0 0.0
8.828124999998218 0.0 0.0
8.906249999998337 0.0 0.0
8.984374999998456 0.0 0.0
9.062499999998575 0.0 0.0
9.140624999998693 0.0 0.0
9.218749999998812 0.0 0.0
9.29687499999893 0.0 0.0
9.37499999999905 0.0 0.0
9.453124999999169 0.0 0.0
9.531249999999288 0.0 0.0
9.609374999999407 0.0 0.0
9.687499999999524 0.0 0.0
9.765624999999643 0.0 0.0
9.843749999999762 0.0 0.0
9.921874999999881 0.0 0.0
10.0 0.078124999999941 0.0
10.0 0.1562499999998863 0.0
10.0 0.2343749999998316 0.0
10.0 0.3124999999997661 0.0
10.0 0.3906249999996789 0.0
10.0 0.4687499999995808 0.0
10.0 0.5468749999995045 0.0
10.0 0.6249999999994498 0.0
10.0 0.703124999999395 0.0
10.0 0.7812499999993404 0.0
10.0 0.8593749999992857 0.0
10.0 0.9374999999992311 0.0
10.0 1.015624999999176 0.0
10.0 1.093749999999122 0.0
10.0 1.171874999999067 0.0
10.0 1.249999999998969 0.0
10.0 1.328124999998784 0.0
10.0 1.406249999998556 0.0
10.0 1.484374999998328 0.0
10.0 1.5624999999981 0.0
10.0 1.640624999997871 0.0
10.0 1.718749999997643 0.0
10.0 1.796874999997415 0.0
10.0 1.874999999997187 0.0
10.0 1.953124999996959 0.0
10.0 2.031249999996731 0.0
10.0 2.109374999996502 0.0
10.0 2.187499999996275 0.0
10.0 2.265624999996046 0.0
10.0 2.343749999995818 0.0
10.0 2.42187499999559 0.0
10.0 2.499999999995362 0.0
10.0 2.578124999995133 0.0
10.0 2.656249999994905 0.0
10.0 2.734374999994677 0.0
10.0 2.812499999994449 0.0
10.0 2.890624999994221 0.0
10.0 2.968749999993992 0.0
10.0 3.046874999993765 0.0
10.0 3.124999999993536 0.0
10.0 3.203124999993308 0.0
10.0 3.28124999999308 0.0
10.0 3.359374999992852 0.0
10.0 3.437499999992624 0.0
10.0 3.515624999992395 0.0
10.0 3.593749999992167 0.0
10.0 3.671874999991939 0.0
10.0 3.749999999991711 0.0
10.0 3.828124999991483 0.0
10.0 3.906249999991255 0.0
10.0 3.984374999991027 0.0
10.0 4.062499999990973 0.0
10.0 4.140624999991091 0.0
10.0 4.21874999999121 0.0
10.0 4.296874999991329 0.0
10.0 4.374999999991448 0.0
10.0 4.453124999991566 0.0
10.0 4.531249999991685 0.0
10.0 4.609374999991804 0.0
10.0 4.687499999991923 0.0
10.0 4.765624999992041 0.0
10.0 4.84374999999216 0.0
10.0 4.921874999992279 0.0
10.0 4.999999999992398 0.0
10.0 5.078124999992516 0.0
10.0 5.156249999992635 0.0
10.0 5.234374999992753 0.0
10.0 5.312499999992872 0.0
10.0 5.390624999992991 0.0
10.0 5.46874999999311 0.0
10.0 5.546874999993229 0.0
10.0 5.624999999993348 0.0
10.0 5.703124999993467 0.0
10.0 5.781249999993586 0.0
10.0 5.859374999993704 0.0
10.0 5.937499999993823 0.0
10.0 6.015624999993942 0.0
10.0 6.09374999999406 0.0
10.0 6.171874999994179 0.0
10.0 6.249999999994298 0.0
10.0 6.328124999994417 0.0
10.0 6.406249999994536 0.0
10.0 6.484374999994654 0.0
10.0 6.562499999994773 0.0
10.0 6.640624999994892 0.0
10.0 6.71874999999501 0.0
10.0 6.796874999995129 0.0
10.0 6.874999999995248 0.0
10.0 6.953124999995367 0.0
10.0 7.031249999995486 0.0
10.0 7.109374999995604 0.0
10.0 7.187499999995723 0.0
10.0 7.265624999995842 0.0
10.0 7.343749999995961 0.0
10.0 7.42187499999608 0.0
10.0 7.499999999996199 0.0
10.0 7.578124999996318 0.0
10.0 7.656249999996437 0.0
10.0 7.734374999996555 0.0
10.0 7.812499999996674 0.0
10.0 7.890624999996793 0.0
10.0 7.968749999996911 0.0
10.0 8.04687499999703 0.0
10.0 8.124999999997149 0.0
10.0 8.203124999997268 0.0
10.0 8.281249999997387 0.0
10.0 8.359374999997506 0.0
10.0 8.437499999997623 0.0
10.0 8.515624999997742 0.0
10.0 8.593749999997861 0.0
10.0 8.67187499999798 0.0
10.0 8.7499999999981 0.0
10.0 8.828124999998218 0.0
10.0 8.906249999998337 0.0
10.0 8.984374999998456 0.0
10.0 9.062499999998575 0.0
10.0 9.140624999998693 0.0
10.0 9.218749999998812 0.0
10.0 9.29687499999893 0.0
10.0 9.37499999999905 0.0
10.0 9.453124999999169 0.0
10.0 9.531249999999288 0.0
10.0 9.609374999999407 0.0
10.0 9.687499999999524 0.0
10.0 9.765624999999643 0.0
10.0 9.843749999999762 0.0
10.0 9.921874999999881 0.0
9.921875 10.0 0.0
9.84375 10.0 0.0
9.765625 10.0 0.0
9.6875 10.0 0.0
9.609375 10.0 0.0
9.53125 10.0 0.0
9.453125 10.0 0.0
9.375 10.0 0.0
9.296875 10.0 0.0
9.21875 10.0 0.0
9.140625 10.0 0.0
9.0625 10.0 0.0
8.984375 10.0 0.0
8.90625 10.0 0.0
8.828125 10.0 0.0
8.75 10.0 0.0
8.671875 10.0 0.0
8.59375 10.0 0.0
8.515625 10.0 0.0
8.4375 10.0 0.0
8.359375 10.0 0.0
8.28125 10.0 0.0
8.203125 10.0 0.0
8.125 10.0 0.0
8.046875 10.0 0.0
7.96875 10.0 0.0
7.890625 10.0 0.0
7.8125 10.0 0.0
7.734375 10.0 0.0
7.65625 10.0 0.0
7.578125 10.0 0.0
7.5 10.0 0.0
7.421875 10.0 0.0
7.34375 10.0 0.0
7.265625 10.0 0.0
7.1875 10.0 0.0
7.109375 10.0 0.0
7.03125 10.0 0.0
6.953125 10.0 0.0
6.875 10.0 0.0
6.796875 10.0 0.0
6.71875 10.0 0.0
6.640625 10.0 0.0
6.5625 10.0 0.0
6.484375 10.0 0.0
6.40625 10.0 0.0
6.328125 10.0 0.0
6.25 10.0 0.0
6.171875 10.0 0.0
6.09375 10.0 0.0
6.015625 10.0 0.0
5.9375 10.0 0.0
5.859375 10.0 0.0
5.78125 10.0 0.0
5.703125 10.0 0.0
5.625 10.0 0.0
5.546875 10.0 0.0
5.46875 10.0 0.0
5.390625 10.0 0.0
5.3125 10.0 0.0
5.234375 10.0 0.0
5.15625 10.0 0.0
5.078125 10.0 0.0
5.0 10.0 0.0
4.921875 10.0 0.0
4.84375 10.0 0.0
4.765625 10.0 0.0
4.6875 10.0 0.0
4.609375 10.0 0.0
4.53125 10.0 0.0
4.453125 10.0 0.0
4.375 10.0 0.0
4.296875 10.0 0.0
4.21875 10.0 0.0
4.140625 10.0 0.0
4.0625 10.0 0.0
3.984375 10.0 0.0
3.90625 10.0 0.0
3.828125 10.0 0.0
3.75 10.0 0.0
3.671875 10.0 0.0
3.59375 10.0 0.0
3.515625 10.0 0.0
3.4375 10.0 0.0
3.359375 10.0 0.0
3.28125 10.0 0.0
3.203125 10.0 0.0
3.125 10.0 0.0
3.046875 10.0 0.0
2.96875 10.0 0.0
2.890625 10.0 0.0
2.8125 10.0 0.0
2.734375 10.0 0.0
2.65625 10.0 0.0
2.578125 10.0 0.0
2.5 10.0 0.0
2.421875 10.0 0.0
2.34375 10.0 0.0
2.265625 10.0 0.0
2.1875 10.0 0.0
2.109375 10.0 0.0
2.03125 10.0 0.0
1.953125 10.0 0.0
1.875 10.0 0.0
1.796875 10.0 0.0
1.71875 10.0 0.0
1.640625 10.0 0.0
1.5625 10.0 0.0
1.484375 10.0 0.0
1.40625 10.0 0.0
1.328125 10.0 0.0
1.25 10.0 0.0
1.171875 10.0 0.0
1.09375 10.0 0.0
1.015625 10.0 0.0
0.9375 10.0 0.0
0.859375 10.0 0.0
0.78125 10.0 0.0
0.703125 10.0 0.0
0.625 10.0 0.0
0.546875 10.0 0.0
0.46875 10.0 0.0
0.390625 10.0 0.0
0.3125 10.0 0.0
0.234375 10.0 0.0
0.15625 10.0 0.0
0.078125 10.0 0.0
0.0 9.921875 0.0
0.0 9.84375 0.0
0.0 9.765625 0.0
0.0 9.6875 0.0
0.0 9.609375 0.0
0.0 9.53125 0.0
0.0 9.453125 0.0
0.0 9.375 0.0
0.0 9.296875 0.0
0.0 9.21875 0.0
0.0 9.140625 0.0
0.0 9.0625 0.0
0.0 8.984375 0.0
0.0 8.90625 0.0
0.0 8.828125 0.0
0.0 8.75 0.0
0.0 8.671875 0.0
0.0 8.59375 0.0
0.0 8.515625 0.0
0.0 8.4375 0.0
0.0 8.359375 0.0
0.0 8.28125 0.0
0.0 8.203125 0.0
0.0 8.125 0.0
0.0 8.046875 0.0
0.0 7.96875 0.0
0.0 7.890625 0.0
0.0 7.8125 0.0
0.0 7.734375 0.0
0.0 7.65625 0.0
0.0 7.578125 0.0
0.0 7.5 0.0
0.0 7.421875 0.0
0.0 7.34375 0.0
0.0 7.265625 0.0
0.0 7.1875 0.0
0.0 7.109375 0.0
0.0 7.03125 0.0
0.0 6.953125 0.0
0.0 6.875 0.0
0.0 6.796875 0.0
0.0 6.71875 0.0
0.0 6.640625 0.0
0.0 6.5625 0.0
0.0 6.484375 0.0
0.0 6.40625 0.0
0.0 6.328125 0.0
0.0 6.25 0.0
0.0 6.171875 0.0
0.0 6.09375 0.0
0.0 6.015625 0.0
0.0 5.9375 0.0
[...]
<PointData Scalars="solution">
<DataArray type="Float64" Name="Real part" format="ascii">
0.0
1000.0
-2000.0
0.0
0.0004768371582020448
0.0038146972656166733
0.012874603271456625
0.030517578124931468
0.05960464477524365
0.10299682617159867
0.16355514526322731
0.2441406249993552
0.3476142883291809
0.47683715820191724
0.6346702575667768
0.8239746093729725
1.0476112365697157
1.3084411621062242
1.609325408931703
1.9531249999951676
2.3427009582455187
2.7809143066320585
3.2706260681041823
3.814697265611084
4.41598892210195
5.077362060525986
5.801677703832382
6.591796874970331
7.4505805968890275
8.380889892537663
9.385585784865414
10.467529296821525
11.629581451355126
12.874603271415458
14.2054557799517
15.624999999913037
17.13609695424865
18.74160766590778
20.444393157839592
22.24731445299327
24.15323257431803
26.16500854476302
28.285503387277526
30.51757812481062
32.8640937803116
35.32791137672962
37.911891937013856
40.61889648411353
43.45178604097778
46.413421630555895
49.50666427579699
52.73437499965031
56.099414825065004
59.60464477499031
63.2529258723754
67.04711914017807
70.9900856013484
75.08468627882753
79.33378219556462
83.74023437450892
88.30690383860959
93.03665161081594
97.93233871407719
102.99682617134258
108.23297500556124
113.64364623968255
119.23170089665568
124.99999999942986
130.95140457095425
137.0887756341782
143.41497421205082
149.93286132752152
156.6452980035394
163.55514526305373
170.66526412901374
177.9785156243686
185.49776077206758
193.22586059505997
201.16567611629486
209.32006835872167
217.69189834528956
226.28402709894763
235.0993156426453
244.1406249993318
253.4108161919562
262.9127502434679
272.6492881768159
282.6232910149497
292.8376197808184
303.2951354973712
313.99869918755735
324.95117187432623
336.1554145806269
347.6142883294087
359.3306541436206
371.3073730462122
383.5473060601326
396.05331420833085
408.82825851375645
421.8749999993585
435.1963996880863
448.795318602889
462.6746177667157
476.837158202516
491.2858009332388
506.0234069818334
521.0528373712492
536.3769531244354
551.9986152643411
567.9206848139156
584.146022796108
600.6774902338674
617.5179481501435
634.6702575678855
652.1372795100424
669.9218749995634
688.0269050593978
706.455230712495
725.2097129818039
744.293212890274
763.7085914608539
783.4587097164939
803.5464286801426
823.9746093747494
844.7461128232635
865.863800048634
887.3305320738103
909.149169921741
931.3225746153763
953.8536071776651
976.7451286315567
999.8168945312502
999.267578125001
998.3520507812524
997.0703125000044
995.4223632812575
993.4082031250118
991.0278320312663
988.2812500000206
985.1684570312755
981.6894531250309
977.8442382812868
973.6328125000432
969.0551757813002
964.1113281250576
958.8012695313156
953.1250000000773
947.0825195313469
940.6738281251219
933.8989257813989
926.7578125001781
919.2504882814595
911.3769531252431
903.1372070315286
894.5312500003165
885.5590820316063
876.2207031253984
866.5161132816927
856.4453125004889
846.0083007817875
835.2050781255881
824.0356445318907
812.5000000006958
800.5981445320028
788.3300781258121
775.6958007821233
762.6953125009368
749.3286132822523
735.5957031260702
721.4965820323898
707.031250001212
692.199707032536
677.0019531263623
661.4379882826908
645.5078125015214
629.2114257828541
612.5488281266889
595.520019533026
578.1250000018649
560.3637695332063
542.2363281270495
523.742675783395
504.88281250220024
485.65673828346337
466.0644531272251
446.10595703348554
425.781250002245
405.0903320335034
384.03320312726066
362.6098632835167
340.8203125022717
318.6645507835258
296.1425781272784
273.2543945335301
250.00000000228056
226.37939453353022
202.3925781272785
178.0395507835259
153.32031250227192
128.23486328351692
102.78320312726066
76.96533203350339
50.78125000224486
24.23095703348565
-2.685546872774921
-29.968261716536517
-57.61718749779948
-85.63232421656335
-114.01367187282813
-142.7612304665945
-171.87499999786178
-201.3549804666302
-231.20117187289975
-261.41357421667
-291.99218749794204
-322.9370117167148
-354.2480468729884
-385.92529296676366
-417.9687499980398
-450.3784179668173
-483.15429687309575
-516.2963867168748
-549.8046874981558
-583.6791992169376
-617.9199218732201
-652.5268554670042
-687.4999999982895
-722.8393554670756
-758.5449218733631
-794.6166992171511
-831.0546874984409
-867.8588867172316
-905.029296873523
-942.565917967316
-980.4687499986103
-1018.7377929674053
-1057.3730468737017
-1096.3745117174994
-1135.7421874987967
-1175.4760742175963
-1215.5761718738972
-1256.042480467699
-1296.8749999990023
-1338.0737304678064
-1379.6386718741114
-1421.5698242179178
-1463.867187499225
-1506.5307617180329
-1549.560546874343
-1592.9565429681538
-1636.7187499994652
-1680.8471679682784
-1725.3417968745925
-1770.202636718408
-1815.4296874997235
-1861.0229492185408
-1906.982421874859
-1953.308105468679
-1999.8173713684082
-1999.2713928222656
-1998.3649253845215
-1997.100830078125
-1995.4819679260254
-1993.5111999511719
-1991.1913871765137
-1988.525390625
-1985.51607131958
-1982.1662902832031
-1978.4789085388184
-1974.456787109375
-1970.1027870178223
-1965.4197692871094
-1960.4105949401855
-1955.078125
-1949.425220489502
-1943.4547424316406
-1937.1695518493652
-1930.572509765625
-1923.6664772033691
-1916.4543151855469
-1908.9388847351074
-1901.123046875
-1893.0096626281738
-1884.6015930175781
-1875.901699066162
-1866.912841796875
-1857.637882232666
-1848.0796813964844
-1838.2411003112793
-1828.125
-1817.7342414855957
-1807.0716857910156
-1796.140193939209
-1784.942626953125
-1773.481845855713
-1761.7607116699219
-1749.7820854187012
-1737.548828125
-1725.0638008117676
-1712.3298645019531
-1699.3498802185059
-1686.126708984375
-1672.6632118225098
-1658.9622497558594
-1645.026683807373
-1630.859375
-1616.4631843566895
-1601.8409729003906
-1586.9956016540527
-1571.929931640625
-1556.6468238830566
-1541.1491394042969
-1525.439739227295
-1509.521484375
-1493.3972358703613
-1477.0698547363281
-1460.5422019958496
-1443.817138671875
-1426.8975257873535
-1409.7862243652344
-1392.4860954284668
-1375.0
-1357.3307991027832
-1339.4813537597656
-1321.4545249938965
-1303.253173828125
-1284.8801612854004
-1266.3383483886719
-1247.6305961608887
-1228.759765625
-1209.728717803955
-1190.5403137207031
-1171.1974143981934
-1151.702880859375
-1132.0595741271973
-1112.2703552246094
-1092.3380851745605
-1072.265625
-1052.055835723877
-1031.7115783691406
-1011.2357139587402
-990.631103515625
-969.9006080627441
-949.0470886230469
-928.0734062194824
-906.982421875
-885.7769966125488
-864.4599914550781
-843.0342674255371
-821.502685546875
-799.868106842041
-778.1333923339844
-756.3014030456543
-734.375
-712.3570442199707
-690.2503967285156
-668.057918548584
-645.782470703125
-623.4269142150879
-600.9941101074219
-578.4869194030762
-555.908203125
-533.2608222961426
-510.5476379394531
-487.77151107788086
-464.935302734375
-442.04187393188477
-419.0940856933594
-396.09479904174805
-373.046875
-349.95317459106445
-326.8165588378906
-303.63988876342773
-280.426025390625
-257.17782974243164
-233.89816284179688
-210.58988571166992
-187.255859375
-163.89894485473633
-140.52200317382812
-117.12789535522461
-93.719482421875
-70.29962539672852
-46.871185302734375
-23.437023162841797
0.0
0.0
0.0
0.0
0.0
0.0
0.0
0.0
0.0
0.0
0.0
0.0
0.0
0.0
0.0
0.0
0.0
0.0
0.0
0.0
0.0
0.0
0.0
0.0
0.0
0.0
0.0
0.0
0.0
0.0
0.0
0.0
0.0
0.0
0.0
0.0
0.0
0.0
0.0
0.0
0.0
0.0
0.0
0.0
0.0
0.0
0.0
0.0
0.0
0.0
0.0
0.0
0.0
0.0
0.0
0.0
0.0
0.0
0.0
0.0
0.0
0.0
0.0
0.0
0.0
0.0
0.0
0.0
0.0
0.0
0.0
0.0
0.0
0.0
0.0
0.0
0.0
0.0
0.0
0.0
0.0
0.0
0.0
0.0
0.0
0.0
0.0
0.0
0.0
0.0
0.0
0.0
0.0
0.0
0.0
0.0
0.0
0.0
0.0
0.0
0.0
0.0
0.0
0.0
0.0
0.0
0.0
0.0
0.0
0.0
0.0
0.0
0.0
0.0
0.0
0.0
0.0
0.0
0.0
0.0
0.0
0.0
0.0
0.0
0.0
0.0
0.0
-250.34352545214696
-49.69730351395326
173.627765388609
-414.6873159518478
-703.9438017269648
-153.96342292868644
52.613969343297825
-787.7849207644102
-110.17852066645216
-9.996312713826086
497.2810154024065
-347.1301432990318
-1137.1034620397916
-154.15556375347808
-38.85763849376297
-451.19409330560075
-353.75355144894036
21.400077367543865
275.1691164302657
-56.59047121596936
-185.13758389922043
-728.5456068730617
-1116.42946354058
215.40057655356165
-434.2325390292247
-54.885665699421146
-275.36238394640645
-41.88714433338728
-571.7738898175935
-71.43767256946424
82.89002350322737
-998.0964842530775
123.08781287641563
8.672723208404634
526.9942167299724
-20.909170455816096
-177.39419403086325
-603.5244925557154
-1348.3423093200868
377.35762271760314
-752.4112930012247
-103.12401941259095
102.32085703412136
-592.3046886303468
-397.03423468186827
-123.25546946304308
-192.98801954560514
-2.1479075940314933
-244.85701760279565
698.5901393196011
-1451.4975531486525
-270.243326241791
-798.3169613364992
-90.81200545856339
-1194.4310997982277
161.3205345812275
-119.39639108436276
-14.83765465695381
341.14007762215897
-326.290682792992
-1002.3302712963025
-39.12736191884834
-513.772677129288
286.5142280647245
-734.5169269352984
-249.14991545920313
-398.2482234258397
-15.667793395871453
122.37045854590208
-14.097443924597536
-388.9198519862465
-190.2129992578831
-551.1887935832146
2.411861029950627
680.2743617413213
-7.674517244755927
-165.57764019235424
-452.68604990805824
-1515.7391156050066
528.9843112033459
-1068.0839275328797
-88.65487572097075
-185.344139839143
37.1658811225278
-603.000196807962
52.568658901928714
355.07062169296796
-36.88570395607311
-932.2204831497291
-104.83108067545494
-1398.3377744081185
282.5978469124241
-441.23549735333665
-162.07045159948606
-971.832775937411
127.7215234126866
-228.75735221960042
30.24558458599473
82.3553156981412
-95.60547464397544
-785.7626352032469
-320.926067953588
-140.66932787231437
28.358995171074792
514.9302356409361
-21.552827136999177
-797.9468202657852
-336.1753976098089
-221.48718963141175
-721.5625945067691
-114.67541680332627
-75.99198465544798
-280.1290443363994
-942.8022938112672
-0.4687870311004515
-32.127099674161016
-575.2721311791043
-65.85140118475171
182.3273736196505
-589.1662624714676
-448.8237225060733
-178.86194245809418
-321.3026887253466
-48.888362539844294
-1205.8316805992254
123.67721473804579
98.54062804723493
-6.349755920811529
257.8602736407587
-117.14912206931886
-947.8651569459362
91.1091294001333
-49.25657736434127
-226.65712518521303
-1150.9490327035655
-21.999950900901496
391.8098473785561
-476.17706697074095
-892.6162772198785
49.93542152459056
-535.5888345786523
-66.91830008281897
-1387.0336285614956
218.63685224936182
-213.97773373951017
-478.3795717515754
-250.70948506009216
-0.4162937354052705
-157.5850177765679
822.6684500132935
-1668.1140199489876
-34.62369941651869
83.73805328405089
-1096.0465624743886
275.6983420110094
-4.517161489444518
472.6247090775566
-275.9807244774511
-1187.976120207205
10.459811733904994
681.4547625520054
-9.312342891218721
-101.88159882398688
-610.1993039917994
-1594.247146228907
445.4528308123125
-827.62567795777
7.729049180061447
382.6542130854407
-37.66279175811259
-632.0430175640237
291.3039164058307
-622.7875760389452
-139.3040039676935
-669.9265964727224
-211.01050698036155
-491.26490423532164
-49.97874984469441
89.87673475698668
-120.75876791689291
38.21398100453878
-545.5570245219166
47.88222813717484
195.1338033083367
-65.54462061017777
-145.746235565658
1.028534653922932
787.1498701146494
-2.8420589106875283
-127.1589757794888
-354.8191196480435
-1662.6193527771707
642.0904989510043
-1284.7977494400395
156.33454187105662
-308.20090306037156
-649.7461124142399
-400.6823450872763
-390.2978498261142
-64.43561104312869
-865.6152359540661
-34.407728648672645
268.32629163719065
-413.88808581951577
-811.2530113537174
-81.50833171624728
-82.71253581356859
109.26503580510739
-81.07531698132811
-1550.8935959611458
355.7008364540525
-594.0032545665653
-3.5843169785927143
614.5603751752556
-268.38266556957745
-1342.811800032756
-215.45243928449136
-943.384027267435
-73.20303003385293
-250.2001766415812
-345.12106221646525
-720.0142808832751
-17.874086279072035
395.21275493988355
-381.58299290488526
-992.2064914390826
-122.68648033942185
-1217.622038007452
205.33658845519437
-285.38593180116357
-239.06468069486772
-178.00116832303667
-54.454565550033124
230.3711414532703
-569.7638828087388
-401.3252667321007
-27.606709779997416
188.2459920703341
4.58420579175214
-44.744660142759194
-1331.5899930634089
165.42564811253007
-12.166311673799163
-674.7040834253685
-461.47864469468874
-12.77439954794212
476.8355868597392
-440.0090808309694
-1024.810877856461
-87.02393270365394
-1085.4506242915045
117.33327929554926
-6.782207747221372
-320.99310217252525
-206.6611149304129
-845.5266358635192
-230.92484084147065
31.32144679658103
379.3823822378493
-38.471604161198066
-800.1309497884163
-490.9280010398275
10.457451127100322
169.32469834893212
20.10263177001744
640.3397439600317
-11.038146007831731
-740.7220051233861
-286.6231001823268
100.86271547748778
-471.48644514529127
61.65799781409741
66.54397069357321
-297.25609987299595
-26.497194264528545
28.307190070534155
44.309953938175134
493.1849978618014
-17.710642229380113
-937.7323934199858
-338.79411242379683
-351.2765319875708
-853.1345853254211
-275.35533037248314
-2.135220458051207
567.7381454133734
-245.9344232169804
-1319.6663757380754
-5.472194672300621
-341.25378457326116
596.9020782920572
-1248.3416630900558
-147.23646644478288
-160.9087212693093
-1244.8031215619974
-27.7139467572326
16.098501888434015
-97.59924771701097
-127.98295821184666
-544.0729840252516
-454.706870542147
2.320797554727908
66.65177517555527
-396.2162532417432
-191.83193744096712
-183.84731887363697
-225.22073169742166
-698.4397782728121
-623.4091264446603
-83.65731851701658
-118.78961927741481
-19.507163912589853
-19.85081280335564
6.296257567541161
769.5865274668616
-4.933207633675896
-82.46205500737598
-529.034926236286
-1693.4444753838175
514.3912039548408
-984.0378893035357
-108.14762338115084
-119.32145797942533
-894.1531328090949
-52.48256970073734
-1509.6729255292532
266.5350964418134
-322.597709549241
313.8785624660908
-485.47971263158576
-120.2862083708076
-1060.5645819493225
133.96116041662725
-134.75753711297617
64.5068022633938
407.3177238287783
-21.285224788240534
-1054.024442213714
-158.09954558237828
-1082.858431533804
173.36944780433353
-299.79814270568386
-13.039619215879306
-529.4360587295532
449.6950279876604
-905.5110000104089
-390.3961573854971
-620.0453685666915
4.583883534980676
607.2176135745168
-177.90248385718988
-1431.7855886804196
-87.64295667250067
17.229344716770623
464.09704976512324
-543.0403949028603
30.601758996499008
-17.454192131655446
-28.15354197031794
-694.356932288379
-406.1334001318316
0.3930949382762608
856.5548014462324
-1.0488507157195732
-100.08586915865837
-267.44953280439114
-1756.5917416943716
735.526828109999
-1461.2497496133335
-758.4354576637514
-627.0754800969702
-522.836935611873
65.09029001024281
238.2307023550854
258.05456322345754
-587.7939059761395
-51.209708448254275
-366.9799271657438
-976.9109128224803
-2.478026070698173
407.94649629221016
-153.06194285546394
88.85918706777392
-886.3927549801906
-145.84274463905268
-149.59567225856563
-1375.0102645745235
-140.90120408138063
-24.220911131327895
261.88991732094064
-91.06080370867818
-172.89722105697066
-66.85453493383555
105.0171449383987
-151.27029397696478
-261.74404912118365
-691.5286086925704
51.67169508343305
-50.564137870702226
212.18489464450943
-763.6691585681218
-74.37781623560215
-522.9842890726352
-302.92180426752094
-830.556250473859
-26.278043489871465
-1213.9838447122722
106.35474713447107
232.61480344814566
-300.38166011862324
-687.4563099481857
-194.33078190359674
-138.87532013962522
-489.95655815115134
-118.25912793597467
-28.98699821874197
322.7744794098123
-437.10695494064385
-859.706944910642
-261.5659204224838
-726.0263139401404
-82.8983116188177
-86.58316556653772
-31.048050075937947
-559.8815624664668
332.4215218770625
-758.1997865136559
-235.02076683230231
-1210.6912438399636
-231.50772897726762
-281.6867554351893
-1061.373811461544
-1022.6834584973562
62.01369343432009
-30.37511903307523
-186.433651751181
-792.548849846235
-57.18264103797923
24.20294488790097
-339.2341343697439
-239.16582482930536
-541.3535574946341
150.47272573472785
-465.2490588682559
29.78418112483002
610.8125829938353
-10.611491818421879
-845.0486976974881
-389.47154267487645
-50.33666362622206
-1584.5199640751816
313.09136435968026
-445.666269320778
41.39790503088034
296.1172074058558
-611.2818858763777
-164.8870431565351
-0.2871649974438061
699.0940254793363
-203.43515399967694
-1506.897031607791
69.86826955389581
-52.62788051919486
-1098.7031610128965
98.10145997421168
158.5864711604658
-201.29363654518025
-473.6760215409252
-82.56160131174917
-125.5071020876298
-846.9918320706362
-32.63618348627474
-668.2242521027554
28.44723278370285
195.22225231670717
-34.92426202903957
-1433.0106793908158
198.8723376866333
-92.38297145600005
-8.307621726141319
539.0719568887183
-357.00630093351657
-1173.9763320324005
3.585804298624553
825.1012803419497
-2.625443535628195
-72.72622107459082
-445.465155651814
-1759.7607010681681
588.1690757308553
-1140.0854913488477
-0.0849618475962454
-96.89436619153996
895.5383507301248
-1800.149835481257
-6.230319363477588
328.3333772655009
-258.3669637359959
-649.8371758968333
-297.07996308051304
-57.17904366745738
-1665.2098812737927
404.2618992860214
-689.6670029954055
-136.34478595080236
-101.26275460058727
-1335.3220756276564
238.70994857126132
-328.7613045754298
6.991876871959028
298.80087879071425
-28.049864699915688
-1319.274304713424
139.48571246968586
111.43360074684693
16.24177288536531
559.4052261843174
-18.413530692302718
-685.2631267924213
-85.32948573758569
-18.97338202336126
-514.9523513830044
412.09401484354123
-874.9456630166936
-821.0791029188224
-204.1649473238036
-256.9621177821528
-915.4032851031698
-125.76904482561511
-1489.4352212728706
388.756538719775
-722.2772681003704
-643.2611584153294
18.61372747712108
361.24549499434244
-545.1594313383308
-274.93340185779664
-355.09754807251824
-638.3420659133625
-43.01063845007812
-711.7362990080167
-492.6619790067409
-51.64028513360686
233.36749219221326
-65.22401712345719
154.84375731777934
-103.71939393209892
-606.1221862445119
-124.92771514397296
-1135.5894885212017
167.32293499193966
-213.16180951429763
-349.5517616818071
-602.1015049914078
-52.45169236673833
-5.565836004048635
191.30112923411943
-348.40002399037166
-215.60129051134524
-102.14664351393763
83.20805222536139
-188.62168434055926
-65.506501386301
-1217.0271661506101
144.72881646124443
-8.796754132984171
195.93505350532772
-463.86788818300676
-69.63044810871858
-1306.2575780419895
183.99793157504809
-125.66954036946342
-16.323248577253693
431.3553796615795
-402.3225770319401
-1017.4737751043415
-360.5369440109094
-771.13291243109
-98.03325204723522
58.75600735263808
15.291667718836791
721.7752367527718
-6.077690253973097
-693.4358961040643
-306.6047864827563
-12.182207881564475
-10.750137257609817
401.3530789596284
458.4974279410043
-331.36398401410503
-324.69578500865146
-1066.5356103721215
-1114.520678109138
-243.32551482798848
-1267.9353708421372
-0.6706982413269962
778.9702034438982
-178.13183677354098
-1600.166648652903
15.215929391050665
-193.12442863612605
-126.28565634009124
-117.6879047318877
-145.82470062904696
-459.9902345229868
-441.2375954930238
-1215.9407864873258
-91.47443710305126
-989.9463290011334
92.69288938552243
29.092148041259332
1.7681685078836311
524.0007783280369
-218.78978081412896
-1309.0374847353146
-33.07749702498961
81.32477922323433
-219.14139420990614
-1007.996508262467
-509.86848828309314
36.969724126951185
445.1794506920729
-27.38830361567061
-858.6692302875125
-290.3589775903545
-407.236321182197
-509.7371906768084
-2.019049849080024
-272.75924396042296
701.9464912486727
-1427.575723220616
-86.75127000832094
-194.63777673094893
-24.055110242535186
325.14056531328487
-383.39173376455454
-917.597038247365
-64.81329304976259
-452.1417157935007
79.56639695268072
-306.88296023625486
-724.8052055029058
-43.71496945721249
145.18011307645855