<VTKFile type="UnstructuredGrid" version="1.0" byte_order="LittleEndian" header_type="UInt64">
<UnstructuredGrid>
<Piece NumberOfPoints="147" NumberOfCells="252">
<Points>
<DataArray NumberOfComponents="3" type="Float64">
0.0 0.0 0.0
100.0 0.0 0.0
100.0 100.0 0.0
0.0 100.0 0.0
9.999999999961581 0.0 0.0
19.99999999991413 0.0 0.0
29.99999999986224 0.0 0.0
39.99999999984005 0.0 0.0
49.99999999982369 0.0 0.0
59.99999999980733 0.0 0.0
69.99999999983592 0.0 0.0
79.99999999989062 0.0 0.0
89.9999999999453 0.0 0.0
100.0 9.999999999961581 0.0
100.0 19.99999999991413 0.0
100.0 29.99999999986224 0.0
100.0 39.99999999984005 0.0
100.0 49.99999999982369 0.0
100.0 59.99999999980733 0.0
100.0 69.99999999983592 0.0
100.0 79.99999999989062 0.0
100.0 89.9999999999453 0.0
90.00000000007105 100.0 0.0
80.00000000014211 100.0 0.0
70.00000000021316 100.0 0.0
60.00000000025813 100.0 0.0
50.00000000025813 100.0 0.0
40.00000000025814 100.0 0.0
30.00000000021316 100.0 0.0
20.00000000014211 100.0 0.0
10.00000000007105 100.0 0.0
0.0 90.00000000007105 0.0
0.0 80.00000000014211 0.0
0.0 70.00000000021316 0.0
0.0 60.00000000025813 0.0
0.0 50.00000000025813 0.0
0.0 40.00000000025814 0.0
0.0 30.00000000021316 0.0
0.0 20.00000000014211 0.0
0.0 10.00000000007105 0.0
48.77077672085327 50.60108009436767 0.0
71.86272650430107 70.36642332372413 0.0
29.63357667627788 71.86272650430753 0.0
70.19695009967744 28.13605605201082 0.0
28.13605605200248 29.80304990032528 0.0
78.03135888501785 49.99999999999439 0.0
49.99999999999466 21.96864111498298 0.0
50.69336031622719 77.58579074799479 0.0
22.4142092520058 50.69336031622717 0.0
82.94973544975258 82.94973544971549 0.0
17.05026455028552 82.9497354497564 0.0
82.94973544972203 17.05026455024917 0.0
17.05026455024534 17.05026455027897 0.0
84.88660690843993 64.07101126393974 0.0
64.07101126394029 15.11339309156041 0.0
35.92898873605781 84.88660690845037 0.0
15.11339309154995 35.92898873605728 0.0
64.0710112639314 84.88660690836781 0.0
84.88660690838371 35.9289887360645 0.0
15.11339309163256 64.07101126393133 0.0
35.92898873606462 15.11339309161669 0.0
64.01567944251025 56.69860627177363 0.0
42.47167143993402 62.88740751026943 0.0
57.20108710844067 36.393605305489 0.0
36.53148959535802 42.5901762081151 0.0
57.57672426757262 67.33856581720683 0.0
67.20084015303325 43.69561589754289 0.0
32.34149690078251 57.60500052967032 0.0
43.96325293119048 33.64482951353458 0.0
89.00291393479785 53.76250855836128 0.0
46.6460370864358 89.01567944254732 0.0
53.76250855836144 10.99708606520249 0.0
10.98432055745308 46.64603708643572 0.0
73.90736031445277 90.23348642127617 0.0
9.766513578724522 73.90736031445549 0.0
90.23348642129109 26.0926396855679 0.0
26.0926396855652 9.766513578709612 0.0
90.06094296448052 74.02985969814816 0.0
74.02985969815113 9.939057035520275 0.0
25.9701403018604 90.06094296449217 0.0
9.939057035508595 25.97014030185743 0.0
74.07539865922706 60.17793690321975 0.0
60.13070888076015 26.18786135811136 0.0
40.12208308545451 73.48518530519456 0.0
26.55756986379121 40.10235332842102 0.0
75.0521009966541 38.47048916130593 0.0
38.47048916130613 24.94789900334693 0.0
52.45716233160366 59.78296212305586 0.0
40.21703787694368 52.45716233160331 0.0
90.01218934945535 90.0121893494552 0.0
9.987810650543988 90.01218934945615 0.0
90.0121893494566 9.987810650543263 0.0
9.987810650542432 9.987810650542565 0.0
57.00787557221585 91.67513246759337 0.0
8.324867532406836 57.00787557221577 0.0
91.67300488297039 43.06021536862492 0.0
43.06021536862503 8.326995117029822 0.0
79.96165664371917 73.70236452029314 0.0
26.29763547971693 79.96165664372995 0.0
73.70236452029926 20.03834335628251 0.0
20.03834335627171 26.29763547971081 0.0
80.12652966216264 27.22061756614414 0.0
72.6436721653665 79.65522624761995 0.0
27.22061756612776 19.87347033784068 0.0
20.34477375238244 72.64367216537065 0.0
62.65665039667289 75.33940871970799 0.0
24.61488595429133 62.6606898626884 0.0
58.80458118159141 48.89217188370155 0.0
49.63688353501789 40.91760433105927 0.0
48.6642002881584 68.2159823007443 0.0
65.73888181515738 34.91196627618029 0.0
31.28462266326211 48.99707825112446 0.0
35.02271339463588 34.38540321231515 0.0
64.99724943021427 93.35904515944748 0.0
6.640954840552784 64.99724943021478 0.0
93.35861964252905 35.01636875799192 0.0
35.01636875799143 6.641380357471227 0.0
92.79009276154366 64.37267590401848 0.0
64.37267590401923 7.209907238456637 0.0
35.70903322496506 92.79264586309799 0.0
7.207354136902325 35.70903322496435 0.0
82.01017201096589 92.00285942771606 0.0
7.997140572283265 82.01017201096703 0.0
92.0028594277334 17.98982798902728 0.0
17.98982798902619 7.997140572266007 0.0
92.0028594277868 82.0101720109858 0.0
82.01017201098799 7.997140572211838 0.0
17.98982798900978 92.0028594277973 0.0
7.997140572201321 17.98982798900756 0.0
65.86069794636498 65.59915514081868 0.0
69.24246359119827 51.65301682473535 0.0
34.58450675270458 65.56239846554936 0.0
51.96261141780642 31.27510803709913 0.0
56.21498692709663 83.70052365724226 0.0
16.29033527755792 56.21579482029968 0.0
83.72919712156478 44.2444403648702 0.0
44.24444036487038 16.27080287843578 0.0
81.66649862792462 57.35016951369653 0.0
57.34771074534741 18.34720712058375 0.0
42.72281705178263 81.61323873709082 0.0
18.38898716716761 42.7217898882548 0.0
43.82388813187266 44.04217049573598 0.0
78.13488467922231 66.69340019278043 0.0
66.69340019278415 21.86511532077921 0.0
33.30659980722471 78.13488467923563 0.0
21.86511532076592 33.30659980722098 0.0
45.89934252121707 56.64722056627958 0.0
</DataArray>
</Points>
<Cells>
<DataArray type="Int32" Name="connectivity">
2 22 89
3 31 90
1 13 91
0 4 92
21 2 89
30 3 90
12 1 91
39 0 92
63 66 107
63 107 108
47 65 105
48 67 106
61 65 87
62 67 88
45 66 85
46 68 86
17 18 69
8 9 71
26 27 70
35 36 72
69 18 117
71 9 118
70 27 119
72 36 120
47 105 133
48 106 134
65 61 129
66 45 130
67 62 131
68 46 132
61 87 107
64 68 141
65 47 109
66 63 110
67 48 111
68 64 112
62 88 146
107 40 108
53 69 117
54 71 118
55 70 119
56 72 120
23 24 73
32 33 74
14 15 75
5 6 76
19 20 77
10 11 78
28 29 79
37 38 80
60 86 103
58 85 101
87 40 107
86 44 103
85 43 101
17 69 95
8 71 96
26 70 93
35 72 94
53 77 97
54 78 99
55 79 98
56 80 100
69 45 135
71 46 136
70 47 133
72 48 134
68 108 141
83 62 109
84 64 111
64 84 112
63 82 110
49 73 102
51 75 101
50 74 104
52 76 103
47 83 109
82 43 110
48 84 111
84 44 112
16 17 95
7 8 96
25 26 93
34 35 94
45 85 135
46 86 136
23 73 121
32 74 122
14 75 123
5 76 124
77 20 125
78 11 126
79 29 127
80 38 128
74 59 104
73 57 102
76 60 103
75 58 101
77 49 97
79 50 98
78 51 99
80 52 100
22 23 121
31 32 122
13 14 123
4 5 124
20 21 125
11 12 126
29 30 127
38 39 128
95 69 135
96 71 136
93 70 133
94 72 134
89 22 121
90 31 122
91 13 123
92 4 124
21 89 125
12 91 126
30 90 127
39 92 128
97 49 102
99 51 101
98 50 104
100 52 103
62 83 131
61 81 129
81 61 130
82 63 132
47 70 139
69 53 137
70 55 139
45 69 137
48 72 140
71 54 138
72 56 140
46 71 138
79 55 119
80 56 120
77 53 117
78 54 118
37 80 120
28 79 119
10 78 118
19 77 117
75 15 115
76 6 116
73 24 113
74 33 114
58 75 115
60 76 116
57 73 113
59 74 114
41 105 129
105 65 129
42 106 131
106 67 131
104 59 106
102 57 105
81 41 129
45 81 130
83 42 131
46 82 132
61 107 130
107 66 130
63 108 132
108 68 132
42 104 106
41 102 105
73 49 121
74 50 122
75 51 123
49 77 125
76 52 124
51 78 126
50 79 127
52 80 128
85 66 110
43 85 110
86 68 112
44 86 112
43 99 101
41 97 102
44 100 103
42 98 104
87 65 109
62 87 109
88 67 111
64 88 111
81 45 137
82 46 138
83 47 139
84 48 140
41 81 142
43 82 143
42 83 144
44 84 145
54 99 143
53 97 142
56 100 145
55 98 144
85 58 135
86 60 136
81 137 142
82 138 143
83 139 144
84 140 145
49 89 121
89 49 125
50 90 122
51 91 123
90 50 127
91 51 126
52 92 124
92 52 128
137 53 142
138 54 143
139 55 144
140 56 145
25 93 113
34 94 114
93 57 113
94 59 114
16 95 115
7 96 116
95 58 115
96 60 116
105 57 133
106 59 134
24 25 113
33 34 114
15 16 115
6 7 116
18 19 117
9 10 118
27 28 119
36 37 120
40 88 141
40 87 146
88 40 146
88 64 141
57 93 133
59 94 134
58 95 135
60 96 136
87 62 146
98 42 144
97 41 142
100 44 145
99 43 143
108 40 141
</DataArray>
<DataArray type="Int32" Name="offsets">
3
6
9
12
15
18
21
24
27
30
33
36
39
42
45
48
51
54
57
60
63
66
69
72
75
78
81
84
87
90
93
96
99
102
105
108
111
114
117
120
123
126
129
132
135
138
141
144
147
150
153
156
159
162
165
168
171
174
177
180
183
186
189
192
195
198
201
204
207
210
213
216
219
222
225
228
231
234
237
240
243
246
249
252
255
258
261
264
267
270
273
276
279
282
285
288
291
294
297
300
303
306
309
312
315
318
321
324
327
330
333
336
339
342
345
348
351
354
357
360
363
366
369
372
375
378
381
384
387
390
393
396
399
402
405
408
411
414
417
420
423
426
429
432
435
438
441
444
447
450
453
456
459
462
465
468
471
474
477
480
483
486
489
492
495
498
501
504
507
510
513
516
519
522
525
528
531
534
537
540
543
546
549
552
555
558
561
564
567
570
573
576
579
582
585
588
591
594
597
600
603
606
609
612
615
618
621
624
627
630
633
636
639
642
645
648
651
654
657
660
663
666
669
672
675
678
681
684
687
690
693
696
699
702
705
708
711
714
717
720
723
726
729
732
735
738
741
744
747
750
753
756
</DataArray>
<DataArray type="UInt8" Name="types">
5
5
5
5
5
5
5
5
5
5
5
5
5
5
5
5
5
5
5
5
5
5
5
5
5
5
5
5
5
5
5
5
5
5
5
5
5
5
5
5
5
5
5
5
5
5
5
5
5
5
5
5
5
5
5
5
5
5
5
5
5
5
5
5
5
5
5
5
5
5
5
5
5
5
5
5
5
5
5
5
5
5
5
5
5
5
5
5
5
5
5
5
5
5
5
5
5
5
5
5
5
5
5
5
5
5
5
5
5
5
5
5
5
5
5
5
5
5
5
5
5
5
5
5
5
5
5
5
5
5
5
5
5
5
5
5
5
5
5
5
5
5
5
5
5
5
5
5
5
5
5
5
5
5
5
5
5
5
5
5
5
5
5
5
5
5
5
5
5
5
5
5
5
5
5
5
5
5
5
5
5
5
5
5
5
5
5
5
5
5
5
5
5
5
5
5
5
5
5
5
5
5
5
5
5
5
5
5
5
5
5
5
5
5
5
5
5
5
5
5
5
5
5
5
5
5
5
5
5
5
5
5
5
5
5
5
5
5
5
5
5
5
5
5
5
5
5
5
5
5
5
5
</DataArray>
</Cells>
<PointData Scalars="solution">
<DataArray type="Float64" Name="Real part" format="ascii">
22.0
2.0
2.0
22.0
28.100987011055512
30.702645663921366
31.287561336554813
30.723588734272433
29.11962659502868
26.680898555150783
23.299279711657963
18.71806873388644
12.110468010363544
2.0
2.0
2.0
2.0
2.0
2.0
2.0
2.0
2.0
12.111817191498552
18.719509375919912
23.30491098448545
26.735959044388135
29.12228979044336
30.665577897969733
31.27974505702408
30.699378297261568
28.098898839415604
22.0
22.0
22.0
22.0
22.0
22.0
22.0
22.0
22.0
17.822701101263494
13.448801151639401
22.337739252920766
14.264768255579769
22.143168639170753
10.003291278699624
20.93139225860333
20.684326039727527
21.164463326075573
11.339354138133622
24.486157377466135
11.325222509291242
24.500315260342237
8.063592425322263
19.35021294476781
24.96673815965739
21.999570244927316
19.34258476666357
8.078882558112104
22.011859992057296
24.946539693136643
14.441862694615885
19.59667066766117
16.737360998111107
19.993764037163174
17.10091411116831
13.549319471314679
20.527674911055257
19.753504952359247
6.162290261722086
24.954558791299544
23.522747720942863
21.74754311966501
17.48589333993334
22.698463589523637
6.614803292042247
27.034162480082355
6.701882207366565
17.376906763143076
26.97068384354564
22.714489096420742
11.634463523147916
17.61991469614586
21.56738801933323
21.170279167168054
11.390722703269239
22.13326435230693
17.452343780358227
19.276896658988978
9.06376200774889
25.055127809604667
9.061868977568833
25.05749273001235
23.79576617187706
21.86495137420459
5.204454451952301
26.580806098580812
10.984352863248413
24.065518553961667
14.59912217305278
22.953643368628292
10.795026488090576
14.952485036373186
24.111592078686446
22.804752828633205
17.264330077874014
21.508999428568018
15.584483537133456
17.987753845841873
19.220510408654146
14.676312161924212
20.41827564869501
20.9176210063027
22.10649490960448
22.089916804328933
4.754955144797328
28.088196914450414
4.958194940619228
22.10206722382597
27.83230209287744
22.062682914970964
14.302567431441277
23.346801453620042
6.554957556424927
27.090625251916915
6.553743178787348
14.300205994288481
27.08671198135994
23.34524649074866
14.686311159515157
12.800945268102442
20.97986146683105
18.64661084266662
21.1638036134365
21.609597058901436
8.123148848747602
23.578873178162294
8.910726960069862
20.26428779482224
23.175343795919588
21.553293352160033
18.844327511236592
10.822442238977837
16.649335643789527
23.31241752927642
22.052574533974262
18.54116056932186
</DataArray>
<DataArray type="Float64" Name="Imag part" format="ascii">
0.0
0.0
0.0
0.0
0.0
0.0
0.0
0.0
0.0
0.0
0.0
0.0
0.0
0.0
0.0
0.0
0.0
0.0
0.0
0.0
0.0
0.0
0.0
0.0
0.0
0.0
0.0
0.0
0.0
0.0
0.0
0.0
0.0
0.0
0.0
0.0
0.0
0.0
0.0
0.0
0.0
0.0
0.0
0.0
0.0
0.0
0.0
0.0
0.0
0.0
0.0
0.0
0.0
0.0
0.0
0.0
0.0
0.0
0.0
0.0
0.0
0.0
0.0
0.0
0.0
0.0
0.0
0.0
0.0
0.0
0.0
0.0
0.0
0.0
0.0
0.0
0.0
0.0
0.0
0.0
0.0
0.0
0.0
0.0
0.0
0.0
0.0
0.0
0.0
0.0
0.0
0.0
0.0
0.0
0.0
0.0
0.0
0.0
0.0
0.0
0.0
0.0
0.0
0.0
0.0
0.0
0.0
0.0
0.0
0.0
0.0
0.0
0.0
0.0
0.0
0.0
0.0
0.0
0.0
0.0
0.0
0.0
0.0
0.0
0.0
0.0
0.0
0.0
0.0
0.0
0.0
0.0
0.0
0.0
0.0
0.0
0.0
0.0
0.0
0.0
0.0
0.0
0.0
0.0
0.0
0.0
0.0
</DataArray>
</PointData>
</Piece>
</UnstructuredGrid>
</VTKFile>
