<VTKFile type="UnstructuredGrid" version="1.0" byte_order="LittleEndian" header_type="UInt64">
<UnstructuredGrid>
<Piece NumberOfPoints="144" NumberOfCells="232">
<Points>
<DataArray NumberOfComponents="3" type="Float64">
0.0 0.0 0.0
100.0 0.0 0.0
100.0 100.0 0.0
0.0 100.0 0.0
50.0 75.0 0.0
25.0 50.0 0.0
50.0 25.0 0.0
75.0 50.0 0.0
40.43291416754674 73.09698830312021 0.0
32.32233042914035 67.67766948846773 0.0
26.90301167312614 59.5670857751069 0.0
26.90301169732363 40.4329141664752 0.0
32.32233051288345 32.32233042778917 0.0
40.43291422604094 26.90301167265069 0.0
59.56708583029248 26.90301169598476 0.0
67.67766957630056 32.32233051697318 0.0
73.09698832905029 40.43291423014748 0.0
73.09698830445909 59.56708582922092 0.0
67.677669484378 67.67766957494938 0.0
59.56708577100035 73.09698832857484 0.0
9.999999999961581 0.0 0.0
19.99999999991413 0.0 0.0
29.99999999986224 0.0 0.0
39.99999999984005 0.0 0.0
49.99999999982369 0.0 0.0
59.99999999980733 0.0 0.0
69.99999999983592 0.0 0.0
79.99999999989062 0.0 0.0
89.9999999999453 0.0 0.0
100.0 9.999999999961581 0.0
100.0 19.99999999991413 0.0
100.0 29.99999999986224 0.0
100.0 39.99999999984005 0.0
100.0 49.99999999982369 0.0
100.0 59.99999999980733 0.0
100.0 69.99999999983592 0.0
100.0 79.99999999989062 0.0
100.0 89.9999999999453 0.0
90.00000000007105 100.0 0.0
80.00000000014211 100.0 0.0
70.00000000021316 100.0 0.0
60.00000000025813 100.0 0.0
50.00000000025813 100.0 0.0
40.00000000025814 100.0 0.0
30.00000000021316 100.0 0.0
20.00000000014211 100.0 0.0
10.00000000007105 100.0 0.0
0.0 90.00000000007105 0.0
0.0 80.00000000014211 0.0
0.0 70.00000000021316 0.0
0.0 60.00000000025813 0.0
0.0 50.00000000025813 0.0
0.0 40.00000000025814 0.0
0.0 30.00000000021316 0.0
0.0 20.00000000014211 0.0
0.0 10.00000000007105 0.0
81.82388313609904 17.79997536250552 0.0
82.2000246375269 81.82388313603548 0.0
17.79997536238994 18.17611686400278 0.0
18.17611686406632 82.20002463764246 0.0
85.62937471959329 32.84635413052721 0.0
67.15364586957554 85.62937471966364 0.0
32.84635413015044 14.37062528018716 0.0
14.3706252801168 67.15364586995226 0.0
85.32608173934665 67.38759117218792 0.0
67.38759117227491 14.67391826062041 0.0
32.61240882753791 85.32608173957723 0.0
14.67391826038985 32.61240882745093 0.0
86.59530804198063 47.53165897242682 0.0
52.46834102759379 86.59530804196135 0.0
47.53165897230969 13.40469195809649 0.0
13.40469195811582 52.4683410277109 0.0
83.54717004540566 58.45423308211858 0.0
41.54576691730911 83.54717004532792 0.0
58.45423308229198 16.45282995461802 0.0
16.45282995469579 41.54576691713573 0.0
88.06410758625569 11.84185703851353 0.0
88.15814296149875 88.06410758623234 0.0
11.84185703840098 11.93589241369172 0.0
11.93589241371503 88.15814296161129 0.0
90.30263260586683 23.61305699647969 0.0
76.38694300361877 90.30263260588185 0.0
23.61305699614944 9.6973673941149 0.0
9.697367394099832 76.38694300394894 0.0
90.73104562299491 75.40615622208958 0.0
75.40615622216309 9.268954377017337 0.0
24.59384377777879 90.73104562308788 0.0
9.268954376924356 24.59384377770531 0.0
73.07271786810031 22.94383595909144 0.0
77.05616404107036 73.072717867802 0.0
22.94383595845973 26.92728213256693 0.0
26.92728213286522 77.05616404170208 0.0
22.78802337218938 67.52414699812749 0.0
32.47585300230939 22.78802337167228 0.0
67.52414699666045 77.21197662940669 0.0
77.2119766299238 32.47585300377645 0.0
93.05398757414841 54.36180726962819 0.0
45.63819273032235 93.05398757413613 0.0
54.36180726961057 6.94601242585436 0.0
6.946012425866649 45.63819273033997 0.0
81.47751806704045 40.15275248868787 0.0
59.84724751145095 81.47751806681173 0.0
40.15275248821707 18.52248193375599 0.0
18.52248193398471 59.84724751192172 0.0
90.16873781032723 39.38618491052519 0.0
60.61381508956589 90.16873781029904 0.0
39.38618491025963 9.831262189758153 0.0
9.831262189786354 60.61381508983141 0.0
93.15521352012257 64.80953195468146 0.0
64.80953195469519 6.844786479865716 0.0
35.19046804532127 93.1552135201635 0.0
6.844786479824796 35.19046804530755 0.0
77.688091656061 65.07798410414193 0.0
65.07798410461709 22.31190834416228 0.0
34.92201589576892 77.68809165670824 0.0
22.31190834351506 34.9220158952938 0.0
81.60811699191666 25.93581509047606 0.0
74.06418490969041 81.60811699175794 0.0
25.93581508989179 18.39188300850881 0.0
18.39188300866751 74.06418491027465 0.0
93.22014902715748 33.16911920744688 0.0
66.8308807926463 93.22014902716892 0.0
33.16911920725236 6.779850972812042 0.0
6.779850972800597 66.83088079284077 0.0
93.33577126552876 16.93364460374294 0.0
83.06635539631529 93.33577126556177 0.0
16.93364460354613 6.664228734311424 0.0
6.664228734278399 83.06635539651207 0.0
93.3357712678637 83.06635539909374 0.0
83.0663553991447 6.664228732093457 0.0
16.93364460075323 93.33577126799563 0.0
6.664228731961565 16.93364460070228 0.0
94.65830754357769 45.18495156377116 0.0
54.81504843627929 94.65830754355946 0.0
45.18495156360913 5.341692456354338 0.0
5.341692456372606 54.81504843644127 0.0
93.20420549198602 6.787798302654235 0.0
93.21220169735153 93.20420549197674 0.0
6.787798302613816 6.795794507984596 0.0
6.795794507993868 93.21220169739196 0.0
74.2030554484021 16.27800158637842 0.0
83.72199841376862 74.20305544822949 0.0
16.27800158590126 25.7969445516911 0.0
25.79694455186368 83.72199841424575 0.0
</DataArray>
</Points>
<Cells>
<DataArray type="Int32" Name="connectivity">
7 68 72
4 69 73
6 70 74
5 71 75
68 7 100
69 4 101
70 6 102
71 5 103
64 72 108
65 74 109
66 73 110
67 75 111
72 96 108
73 97 110
74 98 109
75 99 111
17 7 72
8 4 73
14 6 74
11 5 75
76 56 129
77 57 128
78 58 131
79 59 130
56 76 124
57 77 125
58 78 126
59 79 127
35 84 108
26 85 109
44 86 110
53 87 111
80 56 124
81 57 125
82 58 126
83 59 127
56 85 129
57 84 128
58 87 131
59 86 130
30 31 80
39 40 81
21 22 82
48 49 83
35 36 84
26 27 85
44 45 86
53 54 87
7 16 100
4 19 101
6 13 102
5 10 103
84 64 108
85 65 109
86 66 110
87 67 111
80 31 120
81 40 121
82 22 122
83 49 123
32 104 120
41 105 121
23 106 122
50 107 123
31 32 120
40 41 121
22 23 122
49 50 123
72 68 96
73 69 97
74 70 98
75 71 99
17 72 112
14 74 113
8 73 114
11 75 115
88 15 113
89 18 112
90 12 115
91 9 114
15 14 113
18 17 112
12 11 115
9 8 114
72 64 112
74 65 113
73 66 114
75 67 115
16 15 95
19 18 94
13 12 93
10 9 92
16 95 100
19 94 101
13 93 102
10 92 103
88 56 116
89 57 117
90 58 118
91 59 119
29 124 136
38 125 137
20 126 138
47 127 139
128 37 137
129 28 136
130 46 139
131 55 138
15 88 95
18 89 94
12 90 93
9 91 92
124 76 136
125 77 137
126 78 138
127 79 139
77 128 137
76 129 136
79 130 139
78 131 138
95 88 116
94 89 117
93 90 118
92 91 119
96 68 132
97 69 133
98 70 134
99 71 135
95 60 100
94 61 101
93 62 102
92 63 103
100 60 104
101 61 105
102 62 106
103 63 107
68 100 104
69 101 105
70 102 106
71 103 107
33 34 96
42 43 97
24 25 98
51 52 99
29 30 124
38 39 125
20 21 126
47 48 127
36 37 128
27 28 129
45 46 130
54 55 131
96 34 108
98 25 109
97 43 110
99 52 111
80 60 116
81 61 117
82 62 118
83 63 119
56 80 116
57 81 117
58 82 118
59 83 119
64 84 141
65 85 140
66 86 143
67 87 142
85 56 140
84 57 141
87 58 142
86 59 143
60 80 120
61 81 121
62 82 122
63 83 123
30 80 124
39 81 125
21 82 126
48 83 127
84 36 128
85 27 129
86 45 130
87 54 131
34 35 108
25 26 109
43 44 110
52 53 111
33 96 132
42 97 133
24 98 134
51 99 135
64 89 112
65 88 113
66 91 114
67 90 115
56 88 140
57 89 141
58 90 142
59 91 143
88 65 140
89 64 141
90 67 142
91 66 143
37 2 137
28 1 136
46 3 139
55 0 138
1 29 136
2 38 137
0 20 138
3 47 139
32 33 132
41 42 133
23 24 134
50 51 135
60 95 116
61 94 117
62 93 118
63 92 119
104 60 120
105 61 121
106 62 122
107 63 123
104 32 132
105 41 133
106 23 134
107 50 135
68 104 132
69 105 133
70 106 134
71 107 135
</DataArray>
<DataArray type="Int32" Name="offsets">
3
6
9
12
15
18
21
24
27
30
33
36
39
42
45
48
51
54
57
60
63
66
69
72
75
78
81
84
87
90
93
96
99
102
105
108
111
114
117
120
123
126
129
132
135
138
141
144
147
150
153
156
159
162
165
168
171
174
177
180
183
186
189
192
195
198
201
204
207
210
213
216
219
222
225
228
231
234
237
240
243
246
249
252
255
258
261
264
267
270
273
276
279
282
285
288
291
294
297
300
303
306
309
312
315
318
321
324
327
330
333
336
339
342
345
348
351
354
357
360
363
366
369
372
375
378
381
384
387
390
393
396
399
402
405
408
411
414
417
420
423
426
429
432
435
438
441
444
447
450
453
456
459
462
465
468
471
474
477
480
483
486
489
492
495
498
501
504
507
510
513
516
519
522
525
528
531
534
537
540
543
546
549
552
555
558
561
564
567
570
573
576
579
582
585
588
591
594
597
600
603
606
609
612
615
618
621
624
627
630
633
636
639
642
645
648
651
654
657
660
663
666
669
672
675
678
681
684
687
690
693
696
</DataArray>
<DataArray type="UInt8" Name="types">
5
5
5
5
5
5
5
5
5
5
5
5
5
5
5
5
5
5
5
5
5
5
5
5
5
5
5
5
5
5
5
5
5
5
5
5
5
5
5
5
5
5
5
5
5
5
5
5
5
5
5
5
5
5
5
5
5
5
5
5
5
5
5
5
5
5
5
5
5
5
5
5
5
5
5
5
5
5
5
5
5
5
5
5
5
5
5
5
5
5
5
5
5
5
5
5
5
5
5
5
5
5
5
5
5
5
5
5
5
5
5
5
5
5
5
5
5
5
5
5
5
5
5
5
5
5
5
5
5
5
5
5
5
5
5
5
5
5
5
5
5
5
5
5
5
5
5
5
5
5
5
5
5
5
5
5
5
5
5
5
5
5
5
5
5
5
5
5
5
5
5
5
5
5
5
5
5
5
5
5
5
5
5
5
5
5
5
5
5
5
5
5
5
5
5
5
5
5
5
5
5
5
5
5
5
5
5
5
5
5
5
5
5
5
5
5
5
5
5
5
5
5
5
5
5
5
5
5
5
5
5
5
</DataArray>
</Cells>
<PointData Scalars="solution">
<DataArray type="Float64" Name="Real part" format="ascii">
22.0
2.0
2.0
22.0
24.172174947424665
23.652893440770594
24.15730506725131
7.468405768149841
26.002126056777954
25.36719506869482
24.136941053738838
24.141939297618624
25.36951878871959
26.034111513474965
19.615665705185805
13.659852136566142
9.004530130492853
9.013818820724588
13.659697277325822
19.61920018949574
29.309628294771965
32.43940555245061
33.55932855049388
33.203368371823395
31.483636175319525
28.493141116155183
24.477167218937883
19.441918973878927
12.728475847215455
2.0
2.0
2.0
2.0
2.0
2.0
2.0
2.0
2.0
12.727458099232416
19.44662638926646
24.501604519518107
28.514684861544914
31.47874517268697
33.17460403578856
33.52626275750856
32.43629007305862
29.311509216330037
22.0
22.0
22.0
22.0
22.0
22.0
22.0
22.0
22.0
11.884708438642056
11.600335894276204
25.961795761766425
26.094942009395865
7.331739603043904
19.774673351402853
28.141532539394092
23.79119438889776
7.435451151169143
19.571194512280982
28.043566620902354
23.83579656058624
5.716480221787346
25.483473100801454
26.753328788220813
23.139339012354075
6.835649624227043
27.03663136016755
22.58219398776197
23.50526779825925
9.979839118633977
9.906330604006087
26.00901230249933
26.04653723604272
6.627832165580797
17.16552658925835
28.976843240363092
23.829321606823857
6.299788944233318
17.826116904009584
29.25205542690979
23.67077058741885
14.49008570125017
11.694438189383812
25.231346954130252
26.13458273690185
24.61033276592272
26.415032670179865
16.93398727855321
10.213827478616432
4.051727434048859
29.277528738086705
27.172995731173664
22.63584492432444
7.463264199248229
21.501941863542335
26.86097165880165
23.70053927447233
5.171576889386665
23.985093041248632
29.134037685143973
23.019541717476272
4.447734624229506
23.573021767684985
30.52140447323413
22.822547657363202
9.437298882315172
18.20704165224827
26.52087795215597
24.342217052433927
10.094474267468588
15.387073216406817
26.881522891326853
24.89025953447413
4.535717234644623
22.790451874303532
30.619733989852136
22.873966248591422
5.930531299087921
14.666528590380445
28.850642824511198
23.847975480423266
5.933379828703632
14.673777955367887
28.86051442266692
23.848799148930315
3.5939156371022856
27.721248978098046
30.03294700873498
22.496686607964598
7.633983671136189
7.627260850288578
25.352644630146354
25.356554509830044
16.00066957971499
9.238011478787309
24.64053399680587
27.3736682862201
</DataArray>
<DataArray type="Float64" Name="Imag part" format="ascii">
0.0
0.0
0.0
0.0
0.0
0.0
0.0
0.0
0.0
0.0
0.0
0.0
0.0
0.0
0.0
0.0
0.0
0.0
0.0
0.0
0.0
0.0
0.0
0.0
0.0
0.0
0.0
0.0
0.0
0.0
0.0
0.0
0.0
0.0
0.0
0.0
0.0
0.0
0.0
0.0
0.0
0.0
0.0
0.0
0.0
0.0
0.0
0.0
0.0
0.0
0.0
0.0
0.0
0.0
0.0
0.0
0.0
0.0
0.0
0.0
0.0
0.0
0.0
0.0
0.0
0.0
0.0
0.0
0.0
0.0
0.0
0.0
0.0
0.0
0.0
0.0
0.0
0.0
0.0
0.0
0.0
0.0
0.0
0.0
0.0
0.0
0.0
0.0
0.0
0.0
0.0
0.0
0.0
0.0
0.0
0.0
0.0
0.0
0.0
0.0
0.0
0.0
0.0
0.0
0.0
0.0
0.0
0.0
0.0
0.0
0.0
0.0
0.0
0.0
0.0
0.0
0.0
0.0
0.0
0.0
0.0
0.0
0.0
0.0
0.0
0.0
0.0
0.0
0.0
0.0
0.0
0.0
0.0
0.0
0.0
0.0
0.0
0.0
0.0
0.0
0.0
0.0
0.0
0.0
</DataArray>
</PointData>
</Piece>
</UnstructuredGrid>
</VTKFile>
