<VTKFile type="UnstructuredGrid" version="1.0" byte_order="LittleEndian" header_type="UInt64">
<UnstructuredGrid>
<Piece NumberOfPoints="144" NumberOfCells="232">
<Points>
<DataArray NumberOfComponents="3" type="Float64">
0.0 0.0 0.0
100.0 0.0 0.0
100.0 100.0 0.0
0.0 100.0 0.0
50.0 75.0 0.0
25.0 50.0 0.0
50.0 25.0 0.0
75.0 50.0 0.0
40.43291416754674 73.09698830312021 0.0
32.32233042914035 67.67766948846773 0.0
26.90301167312614 59.5670857751069 0.0
26.90301169732363 40.4329141664752 0.0
32.32233051288345 32.32233042778917 0.0
40.43291422604094 26.90301167265069 0.0
59.56708583029248 26.90301169598476 0.0
67.67766957630056 32.32233051697318 0.0
73.09698832905029 40.43291423014748 0.0
73.09698830445909 59.56708582922092 0.0
67.677669484378 67.67766957494938 0.0
59.56708577100035 73.09698832857484 0.0
9.999999999961581 0.0 0.0
19.99999999991413 0.0 0.0
29.99999999986224 0.0 0.0
39.99999999984005 0.0 0.0
49.99999999982369 0.0 0.0
59.99999999980733 0.0 0.0
69.99999999983592 0.0 0.0
79.99999999989062 0.0 0.0
89.9999999999453 0.0 0.0
100.0 9.999999999961581 0.0
100.0 19.99999999991413 0.0
100.0 29.99999999986224 0.0
100.0 39.99999999984005 0.0
100.0 49.99999999982369 0.0
100.0 59.99999999980733 0.0
100.0 69.99999999983592 0.0
100.0 79.99999999989062 0.0
100.0 89.9999999999453 0.0
90.00000000007105 100.0 0.0
80.00000000014211 100.0 0.0
70.00000000021316 100.0 0.0
60.00000000025813 100.0 0.0
50.00000000025813 100.0 0.0
40.00000000025814 100.0 0.0
30.00000000021316 100.0 0.0
20.00000000014211 100.0 0.0
10.00000000007105 100.0 0.0
0.0 90.00000000007105 0.0
0.0 80.00000000014211 0.0
0.0 70.00000000021316 0.0
0.0 60.00000000025813 0.0
0.0 50.00000000025813 0.0
0.0 40.00000000025814 0.0
0.0 30.00000000021316 0.0
0.0 20.00000000014211 0.0
0.0 10.00000000007105 0.0
81.82388313609904 17.79997536250552 0.0
82.2000246375269 81.82388313603548 0.0
17.79997536238994 18.17611686400278 0.0
18.17611686406632 82.20002463764246 0.0
85.62937471959329 32.84635413052721 0.0
67.15364586957554 85.62937471966364 0.0
32.84635413015044 14.37062528018716 0.0
14.3706252801168 67.15364586995226 0.0
85.32608173934665 67.38759117218792 0.0
67.38759117227491 14.67391826062041 0.0
32.61240882753791 85.32608173957723 0.0
14.67391826038985 32.61240882745093 0.0
86.59530804198063 47.53165897242682 0.0
52.46834102759379 86.59530804196135 0.0
47.53165897230969 13.40469195809649 0.0
13.40469195811582 52.4683410277109 0.0
83.54717004540566 58.45423308211858 0.0
41.54576691730911 83.54717004532792 0.0
58.45423308229198 16.45282995461802 0.0
16.45282995469579 41.54576691713573 0.0
88.06410758625569 11.84185703851353 0.0
88.15814296149875 88.06410758623234 0.0
11.84185703840098 11.93589241369172 0.0
11.93589241371503 88.15814296161129 0.0
90.30263260586683 23.61305699647969 0.0
76.38694300361877 90.30263260588185 0.0
23.61305699614944 9.6973673941149 0.0
9.697367394099832 76.38694300394894 0.0
90.73104562299491 75.40615622208958 0.0
75.40615622216309 9.268954377017337 0.0
24.59384377777879 90.73104562308788 0.0
9.268954376924356 24.59384377770531 0.0
73.07271786810031 22.94383595909144 0.0
77.05616404107036 73.072717867802 0.0
22.94383595845973 26.92728213256693 0.0
26.92728213286522 77.05616404170208 0.0
22.78802337218938 67.52414699812749 0.0
32.47585300230939 22.78802337167228 0.0
67.52414699666045 77.21197662940669 0.0
77.2119766299238 32.47585300377645 0.0
93.05398757414841 54.36180726962819 0.0
45.63819273032235 93.05398757413613 0.0
54.36180726961057 6.94601242585436 0.0
6.946012425866649 45.63819273033997 0.0
81.47751806704045 40.15275248868787 0.0
59.84724751145095 81.47751806681173 0.0
40.15275248821707 18.52248193375599 0.0
18.52248193398471 59.84724751192172 0.0
90.16873781032723 39.38618491052519 0.0
60.61381508956589 90.16873781029904 0.0
39.38618491025963 9.831262189758153 0.0
9.831262189786354 60.61381508983141 0.0
93.15521352012257 64.80953195468146 0.0
64.80953195469519 6.844786479865716 0.0
35.19046804532127 93.1552135201635 0.0
6.844786479824796 35.19046804530755 0.0
77.688091656061 65.07798410414193 0.0
65.07798410461709 22.31190834416228 0.0
34.92201589576892 77.68809165670824 0.0
22.31190834351506 34.9220158952938 0.0
81.60811699191666 25.93581509047606 0.0
74.06418490969041 81.60811699175794 0.0
25.93581508989179 18.39188300850881 0.0
18.39188300866751 74.06418491027465 0.0
93.22014902715748 33.16911920744688 0.0
66.8308807926463 93.22014902716892 0.0
33.16911920725236 6.779850972812042 0.0
6.779850972800597 66.83088079284077 0.0
93.33577126552876 16.93364460374294 0.0
83.06635539631529 93.33577126556177 0.0
16.93364460354613 6.664228734311424 0.0
6.664228734278399 83.06635539651207 0.0
93.3357712678637 83.06635539909374 0.0
83.0663553991447 6.664228732093457 0.0
16.93364460075323 93.33577126799563 0.0
6.664228731961565 16.93364460070228 0.0
94.65830754357769 45.18495156377116 0.0
54.81504843627929 94.65830754355946 0.0
45.18495156360913 5.341692456354338 0.0
5.341692456372606 54.81504843644127 0.0
93.20420549198602 6.787798302654235 0.0
93.21220169735153 93.20420549197674 0.0
6.787798302613816 6.795794507984596 0.0
6.795794507993868 93.21220169739196 0.0
74.2030554484021 16.27800158637842 0.0
83.72199841376862 74.20305544822949 0.0
16.27800158590126 25.7969445516911 0.0
25.79694455186368 83.72199841424575 0.0
</DataArray>
</Points>
<Cells>
<DataArray type="Int32" Name="connectivity">
7 68 72
4 69 73
6 70 74
5 71 75
68 7 100
69 4 101
70 6 102
71 5 103
64 72 108
65 74 109
66 73 110
67 75 111
72 96 108
73 97 110
74 98 109
75 99 111
17 7 72
8 4 73
14 6 74
11 5 75
76 56 129
77 57 128
78 58 131
79 59 130
56 76 124
57 77 125
58 78 126
59 79 127
35 84 108
26 85 109
44 86 110
53 87 111
80 56 124
81 57 125
82 58 126
83 59 127
56 85 129
57 84 128
58 87 131
59 86 130
30 31 80
39 40 81
21 22 82
48 49 83
35 36 84
26 27 85
44 45 86
53 54 87
7 16 100
4 19 101
6 13 102
5 10 103
84 64 108
85 65 109
86 66 110
87 67 111
80 31 120
81 40 121
82 22 122
83 49 123
32 104 120
41 105 121
23 106 122
50 107 123
31 32 120
40 41 121
22 23 122
49 50 123
72 68 96
73 69 97
74 70 98
75 71 99
17 72 112
14 74 113
8 73 114
11 75 115
88 15 113
89 18 112
90 12 115
91 9 114
15 14 113
18 17 112
12 11 115
9 8 114
72 64 112
74 65 113
73 66 114
75 67 115
16 15 95
19 18 94
13 12 93
10 9 92
16 95 100
19 94 101
13 93 102
10 92 103
88 56 116
89 57 117
90 58 118
91 59 119
29 124 136
38 125 137
20 126 138
47 127 139
128 37 137
129 28 136
130 46 139
131 55 138
15 88 95
18 89 94
12 90 93
9 91 92
124 76 136
125 77 137
126 78 138
127 79 139
77 128 137
76 129 136
79 130 139
78 131 138
95 88 116
94 89 117
93 90 118
92 91 119
96 68 132
97 69 133
98 70 134
99 71 135
95 60 100
94 61 101
93 62 102
92 63 103
100 60 104
101 61 105
102 62 106
103 63 107
68 100 104
69 101 105
70 102 106
71 103 107
33 34 96
42 43 97
24 25 98
51 52 99
29 30 124
38 39 125
20 21 126
47 48 127
36 37 128
27 28 129
45 46 130
54 55 131
96 34 108
98 25 109
97 43 110
99 52 111
80 60 116
81 61 117
82 62 118
83 63 119
56 80 116
57 81 117
58 82 118
59 83 119
64 84 141
65 85 140
66 86 143
67 87 142
85 56 140
84 57 141
87 58 142
86 59 143
60 80 120
61 81 121
62 82 122
63 83 123
30 80 124
39 81 125
21 82 126
48 83 127
84 36 128
85 27 129
86 45 130
87 54 131
34 35 108
25 26 109
43 44 110
52 53 111
33 96 132
42 97 133
24 98 134
51 99 135
64 89 112
65 88 113
66 91 114
67 90 115
56 88 140
57 89 141
58 90 142
59 91 143
88 65 140
89 64 141
90 67 142
91 66 143
37 2 137
28 1 136
46 3 139
55 0 138
1 29 136
2 38 137
0 20 138
3 47 139
32 33 132
41 42 133
23 24 134
50 51 135
60 95 116
61 94 117
62 93 118
63 92 119
104 60 120
105 61 121
106 62 122
107 63 123
104 32 132
105 41 133
106 23 134
107 50 135
68 104 132
69 105 133
70 106 134
71 107 135
</DataArray>
<DataArray type="Int32" Name="offsets">
3
6
9
12
15
18
21
24
27
30
33
36
39
42
45
48
51
54
57
60
63
66
69
72
75
78
81
84
87
90
93
96
99
102
105
108
111
114
117
120
123
126
129
132
135
138
141
144
147
150
153
156
159
162
165
168
171
174
177
180
183
186
189
192
195
198
201
204
207
210
213
216
219
222
225
228
231
234
237
240
243
246
249
252
255
258
261
264
267
270
273
276
279
282
285
288
291
294
297
300
303
306
309
312
315
318
321
324
327
330
333
336
339
342
345
348
351
354
357
360
363
366
369
372
375
378
381
384
387
390
393
396
399
402
405
408
411
414
417
420
423
426
429
432
435
438
441
444
447
450
453
456
459
462
465
468
471
474
477
480
483
486
489
492
495
498
501
504
507
510
513
516
519
522
525
528
531
534
537
540
543
546
549
552
555
558
561
564
567
570
573
576
579
582
585
588
591
594
597
600
603
606
609
612
615
618
621
624
627
630
633
636
639
642
645
648
651
654
657
660
663
666
669
672
675
678
681
684
687
690
693
696
</DataArray>
<DataArray type="UInt8" Name="types">
5
5
5
5
5
5
5
5
5
5
5
5
5
5
5
5
5
5
5
5
5
5
5
5
5
5
5
5
5
5
5
5
5
5
5
5
5
5
5
5
5
5
5
5
5
5
5
5
5
5
5
5
5
5
5
5
5
5
5
5
5
5
5
5
5
5
5
5
5
5
5
5
5
5
5
5
5
5
5
5
5
5
5
5
5
5
5
5
5
5
5
5
5
5
5
5
5
5
5
5
5
5
5
5
5
5
5
5
5
5
5
5
5
5
5
5
5
5
5
5
5
5
5
5
5
5
5
5
5
5
5
5
5
5
5
5
5
5
5
5
5
5
5
5
5
5
5
5
5
5
5
5
5
5
5
5
5
5
5
5
5
5
5
5
5
5
5
5
5
5
5
5
5
5
5
5
5
5
5
5
5
5
5
5
5
5
5
5
5
5
5
5
5
5
5
5
5
5
5
5
5
5
5
5
5
5
5
5
5
5
5
5
5
5
5
5
5
5
5
5
5
5
5
5
5
5
5
5
5
5
5
5
</DataArray>
</Cells>
<PointData Scalars="solution">
<DataArray type="Float64" Name="Real part" format="ascii">
22.0
2.0
2.0
22.0
24.990726462611978
23.05675627927842
22.491171223544438
6.968380251630748
25.79902649346158
24.915477584111734
23.658092871425012
23.24080408586511
23.99376358090967
24.338029167951266
18.25227959327926
12.702756618783912
8.383861924930505
8.445192164538309
12.976360389964542
19.19304145475716
24.7992222040065
30.013986132142925
31.463671990346423
31.25803649252826
29.707227117188022
26.95871890215762
23.262573861312035
18.604013651823003
12.30174222059283
2.0
2.0
2.0
2.0
2.0
2.0
2.0
2.0
2.0
8.480810886782434
17.54624872663198
23.182170389060254
27.53910138138595
30.717288533651544
32.50135143332928
32.92359197833759
31.9642769891031
29.052093409732528
22.0
22.0
22.0
22.0
22.0
22.0
22.0
22.0
22.0
11.177827743976582
10.610101014354267
24.52616857491709
25.687795866642702
6.8742755378973746
18.823816357948647
26.30250040659882
23.459004978981966
6.936244822566943
18.324637425408827
27.530066076751133
23.067070040320548
5.367101550942789
24.991435996970022
24.984204101860204
22.750171072608108
6.397595095712974
26.65897702131155
21.068960925523285
22.868585152047448
9.49123944843827
8.651553394929016
24.449975320128075
25.752913740305633
6.269790182214538
15.767952014788921
26.960263203896137
23.59341992319868
5.828866437564078
16.82954886198134
28.730562687446803
22.992422136936852
13.522617986132465
10.948564632324954
23.96662067698716
25.6665144102524
24.1674671018553
24.776475912021326
16.173694770936027
9.518333476851192
3.855753605647486
28.628734786537688
25.50467276383266
22.37761647982358
6.9692785595782585
20.928387300676
25.07737387565428
23.27971858616031
4.8831785818655
23.11748018306727
27.242254023050037
22.763864478544917
4.20936181798052
22.195504675301077
29.90936295478892
22.468460567508153
8.840004328657516
16.964764676530397
26.11414353120337
23.361948392659997
9.449453620765212
14.408971633680087
25.229189272159697
24.496212437232167
4.316431117638576
21.669128701315152
28.636782157560276
22.703785264158345
5.665041083311089
12.825300513168536
26.56517829476513
23.678164790851465
5.347108464724095
13.967232835836649
28.453024910144563
23.097788794385966
3.4437577923973146
26.920596582082677
28.182687589035055
22.33911531825833
7.34679258277226
6.0690407103197535
23.616958553357062
25.178918589648934
15.00735898761923
8.563954751146326
23.603346537399993
26.882971732072207
</DataArray>
<DataArray type="Float64" Name="Imag part" format="ascii">
0.0
0.0
0.0
0.0
0.0
0.0
0.0
0.0
0.0
0.0
0.0
0.0
0.0
0.0
0.0
0.0
0.0
0.0
0.0
0.0
0.0
0.0
0.0
0.0
0.0
0.0
0.0
0.0
0.0
0.0
0.0
0.0
0.0
0.0
0.0
0.0
0.0
0.0
0.0
0.0
0.0
0.0
0.0
0.0
0.0
0.0
0.0
0.0
0.0
0.0
0.0
0.0
0.0
0.0
0.0
0.0
0.0
0.0
0.0
0.0
0.0
0.0
0.0
0.0
0.0
0.0
0.0
0.0
0.0
0.0
0.0
0.0
0.0
0.0
0.0
0.0
0.0
0.0
0.0
0.0
0.0
0.0
0.0
0.0
0.0
0.0
0.0
0.0
0.0
0.0
0.0
0.0
0.0
0.0
0.0
0.0
0.0
0.0
0.0
0.0
0.0
0.0
0.0
0.0
0.0
0.0
0.0
0.0
0.0
0.0
0.0
0.0
0.0
0.0
0.0
0.0
0.0
0.0
0.0
0.0
0.0
0.0
0.0
0.0
0.0
0.0
0.0
0.0
0.0
0.0
0.0
0.0
0.0
0.0
0.0
0.0
0.0
0.0
0.0
0.0
0.0
0.0
0.0
0.0
</DataArray>
</PointData>
</Piece>
</UnstructuredGrid>
</VTKFile>
