<VTKFile type="UnstructuredGrid" version="1.0" byte_order="LittleEndian" header_type="UInt64">
<UnstructuredGrid>
<Piece NumberOfPoints="373" NumberOfCells="682">
<Points>
<DataArray NumberOfComponents="3" type="Float64">
0.0 0.0 0.0
1.0 0.0 0.0
1.0 1.0 0.0
0.0 1.0 0.0
0.2 0.25 0.0
0.15 0.2 0.0
0.2 0.15 0.0
0.25 0.2 0.0
0.2 0.55 0.0
0.15 0.5 0.0
0.2 0.45 0.0
0.25 0.5 0.0
0.2 0.8500000000000001 0.0
0.15 0.8 0.0
0.2 0.75 0.0
0.25 0.8 0.0
0.5 0.25 0.0
0.45 0.2 0.0
0.5 0.15 0.0
0.55 0.2 0.0
0.5 0.55 0.0
0.45 0.5 0.0
0.5 0.45 0.0
0.55 0.5 0.0
0.5 0.8500000000000001 0.0
0.45 0.8 0.0
0.5 0.75 0.0
0.55 0.8 0.0
0.8 0.25 0.0
0.75 0.2 0.0
0.8 0.15 0.0
0.8500000000000001 0.2 0.0
0.8 0.55 0.0
0.75 0.5 0.0
0.8 0.45 0.0
0.8500000000000001 0.5 0.0
0.8 0.8500000000000001 0.0
0.75 0.8 0.0
0.8 0.75 0.0
0.8500000000000001 0.8 0.0
0.1646446608727939 0.2353553389914487 0.0
0.1646446610085514 0.1646446608727939 0.0
0.2353553391272061 0.1646446610085514 0.0
0.2353553389914487 0.2353553391272061 0.0
0.1646446608926911 0.5353553390113459 0.0
0.1646446610424293 0.464644660838916 0.0
0.2353553391217903 0.4646446610031355 0.0
0.2353553389872768 0.5353553391313779 0.0
0.1646446608926911 0.835355339011346 0.0
0.1646446610127232 0.7646446608686222 0.0
0.2353553391073089 0.7646446609886541 0.0
0.499999999998694 0.0 0.0
0.464644660838916 0.2353553389575707 0.0
0.4646446610031355 0.1646446608782098 0.0
0.5353553391313779 0.1646446610127232 0.0
0.5353553390113459 0.2353553391073089 0.0
0.4646446609191431 0.5353553390377979 0.0
0.4646446610370135 0.4646446608443318 0.0
0.5353553391259621 0.4646446610073074 0.0
0.5353553390335396 0.5353553390851152 0.0
0.4646446609191431 0.8353553390377979 0.0
0.4646446610073074 0.7646446608740379 0.0
1.0 0.499999999998694 0.0
0.5353553390335396 0.8353553390851153 0.0
0.7646446608686222 0.2353553389872768 0.0
0.7646446609886541 0.1646446608926911 0.0
0.8353553391313779 0.1646446610127232 0.0
0.835355339011346 0.2353553391073089 0.0
0.7646446609148848 0.5353553390335396 0.0
0.7646446609622022 0.4646446609191431 0.0
0.8353553391259622 0.4646446610073074 0.0
0.8353553390335396 0.5353553390851152 0.0
0.7646446609148848 0.8353553390335396 0.0
0.5000000000020591 1.0 0.0
0.8353553390851153 0.7646446609664604 0.0
0.8353553390335396 0.8353553390851153 0.0
0.0 0.5000000000020591 0.0
0.2353553389872768 0.8353553391313779 0.0
0.5353553390851152 0.7646446609664604 0.0
0.7646446609664604 0.7646446609148848 0.0
0.3452838987629422 0.3529541407739475 0.0
0.3484012916319753 0.6458341586712311 0.0
0.6500000000000001 0.35 0.0
0.6521193283545252 0.6407408277465843 0.0
0.3567654938123206 0.1503754234196064 0.0
0.1378679655022652 0.3499999999349926 0.0
0.6500000000459986 0.1378679655438416 0.0
0.13757807644834 0.6444903581852695 0.0
0.3499999999641384 0.8621320345201747 0.0
0.8496245765762236 0.35676549379661 0.0
0.6444903582104897 0.8624219235221197 0.0
0.8621320344118667 0.6500000000197649 0.0
0.4583333333333333 0.35 0.0
0.35 0.4583333333333333 0.0
0.4583333333333333 0.6500000000000001 0.0
0.6500000000000001 0.4583333333333335 0.0
0.5543984100597505 0.3649395278943097 0.0
0.3335309691467265 0.5544024468922572 0.0
0.5531714584575866 0.6669878336864699 0.0
0.6281570898301779 0.5571410737857181 0.0
0.3689339826175806 0.2542893217450537 0.0
0.2522672940413998 0.3283079381680141 0.0
0.255593436454453 0.6268816896642357 0.0
0.6701031560343187 0.2518022143515536 0.0
0.3283079381367311 0.7477327059389693 0.0
0.6310660172297919 0.7457106781531949 0.0
0.7481977856037189 0.6701031561100678 0.0
0.7457106781474915 0.3689339827787633 0.0
0.5819152110532082 0.2941413937622384 0.0
0.7058586062419266 0.5819152110610145 0.0
0.4011529895204881 0.5882766460295399 0.0
0.4120841398134572 0.4119563048845528 0.0
0.2912162517937651 0.4032025715688219 0.0
0.4032025879292295 0.7087840449364817 0.0
0.5728407411221564 0.5980928622094511 0.0
0.590708025429277 0.425710600703564 0.0
0.5149497487437188 0.314909617532105 0.0
0.3826688547938008 0.5174013060277558 0.0
0.6850903824678952 0.5149497487437191 0.0
0.5129166489259234 0.6130876559396792 0.0
0.425868386285172 0.2907167116926177 0.0
0.7092832882888096 0.4258683864117223 0.0
0.760577070006876 0.3026014819677784 0.0
0.6975459297752993 0.7610628039963707 0.0
0.2424490450262879 0.6975189399844368 0.0
0.3025357903467879 0.2389279011587406 0.0
0.7740413158898805 0.6079209707154333 0.0
0.6079209706905961 0.2259586841255219 0.0
0.4959423944398368 0.3943382397798146 0.0
0.3086805555555556 0.5000000000000001 0.0
0.6091203914685013 0.4955611555134115 0.0
0.5008804775511997 0.6904408928763202 0.0
0.225720014860645 0.3898827061510167 0.0
0.3898827061150187 0.7742799851608858 0.0
0.4611414873717716 0.5920261295844054 0.0
0.6411821829845081 0.4041666666666668 0.0
0.4077563014273692 0.4649729498043388 0.0
0.4041666666666666 0.35598201066615 0.0
0.352563520826438 0.4037146841465169 0.0
0.4041666666666663 0.6440225597706959 0.0
0.3094417012785201 0.3036467024001055 0.0
0.3036467023806593 0.6905582986908246 0.0
0.6962321531026454 0.3132139892090962 0.0
0.6872517156915892 0.6964733689820493 0.0
0.2744770731732271 0.578102694716521 0.0
0.5768433058721011 0.7229908061068979 0.0
0.5999173126881299 0.6434148357560234 0.0
0.3275039757716751 0.611633896606116 0.0
0.6112611095315168 0.3531687345235948 0.0
0.6510000418490055 0.6045323699302716 0.0
0.6220748638292357 0.6903911740656621 0.0
0.5802931927780797 0.5468525096976764 0.0
0.5420562356766417 0.4224338777559339 0.0
0.283832314165001 0.4485374872038602 0.0
0.448537792820748 0.7161679930227284 0.0
0.4572884807483471 0.4150071189799268 0.0
0.6448561124897647 0.2868956431443438 0.0
0.7131043568595395 0.6448561125194939 0.0
0.3851432197990866 0.3081448170626047 0.0
0.2648151845248501 0.2777278553505091 0.0
0.7222264549495336 0.2727030900629017 0.0
0.277727855324822 0.7351848154432777 0.0
0.7276023893293264 0.7222628423351835 0.0
0.6789907942389947 0.3843708978273297 0.0
0.1948817283490753 0.3115910170687184 0.0
0.6855345978623104 0.1865908528443297 0.0
0.8134091471405205 0.685534597864106 0.0
0.3115910170733166 0.8051182716576539 0.0
0.3801244175610315 0.2004914579818748 0.0
0.6217188189230625 0.7991561461524338 0.0
0.2009976810416867 0.6211682963542925 0.0
0.7951690404604221 0.3777027262933815 0.0
0.5459031003258153 0.2804549746215143 0.0
0.7195450253888914 0.5459031003228273 0.0
0.481644617531453 0.2908422430734355 0.0
0.7091399460219331 0.4815348117135475 0.0
0.419560766274629 0.5458417321074581 0.0
0.166985467971646 0.6983925987680814 0.0
0.3018585716286026 0.1695449373688907 0.0
0.8304550626217913 0.3018585716107116 0.0
0.6983925987986208 0.8330145320301119 0.0
0.4175804561489287 0.2394138811781785 0.0
0.7614175935671851 0.4166071192822636 0.0
0.3003643731187021 0.3461284248916342 0.0
0.3469572174122701 0.7081148021338938 0.0
0.5914491831955804 0.1771524259985383 0.0
0.5765625635168568 0.09892771206035239 0.0
0.8228475740197183 0.591449183196928 0.0
0.9010722879427588 0.576562563522012 0.0
0.5564424331489114 0.3271929344242638 0.0
0.6824308151817637 0.5550759342446934 0.0
0.3738375354416122 0.5527086007166082 0.0
0.5782628818834022 0.469453908155296 0.0
0.3653437146804001 0.6104771009088896 0.0
0.5321646371509126 0.5829284769699962 0.0
0.2329137662055043 0.5794608609911137 0.0
0.5825678021919205 0.7619709663773617 0.0
0.2781871751028706 0.5326902791641251 0.0
0.5283021938494734 0.7214250284181485 0.0
0.7157659865691741 0.1482604964242765 0.0
0.7610821952305 0.1060441077273564 0.0
0.851739503551748 0.7157659865489189 0.0
0.8939558922498753 0.7610821952053811 0.0
0.3033170854964511 0.6474625115444843 0.0
0.6137390717085915 0.5916790376934672 0.0
0.6070098497317331 0.3928381422533496 0.0
0.5156277445970247 0.6529013111293197 0.0
0.4971162791338049 0.3565278193806247 0.0
0.3429304618677789 0.4977063206797311 0.0
0.6457387504489988 0.4984873567384867 0.0
0.5442996049738836 0.6273874128587847 0.0
0.426702331896494 0.7461716323497406 0.0
0.2538283676542173 0.4267023319035936 0.0
0.3327588820422465 0.1984064350760695 0.0
0.1984064350523589 0.66724111795002 0.0
0.6672411179737611 0.8015935650237096 0.0
0.8008667520357375 0.331496857755869 0.0
0.3252430299484902 0.42745607455884 0.0
0.4274930632024492 0.6745167209610695 0.0
0.4381728049849837 0.3832240739904602 0.0
0.4328609595519667 0.617560842110545 0.0
0.3817840748884162 0.4363752609421777 0.0
0.746107214164058 0.5776134865679008 0.0
0.5776134865511182 0.2538927858507788 0.0
0.6127315137887754 0.4589288682862319 0.0
0.6648373441998041 0.4249861177852342 0.0
0.328264383867962 0.3811781850781423 0.0
0.3770232097654375 0.6711037256165073 0.0
0.715872524453368 0.2221505442261557 0.0
0.2263554134766176 0.2830374611432411 0.0
0.2830374611427149 0.7736445865081463 0.0
0.7778627088733056 0.7158741031201797 0.0
0.7087273574057628 0.3508903043533835 0.0
0.2615830460764914 0.3733750309119062 0.0
0.3734109885182618 0.7387848332847419 0.0
0.4220200038672935 0.3297581905490086 0.0
0.2898261775733322 0.2020465570528661 0.0
0.2019745627212596 0.7108460006641253 0.0
0.7980033141712578 0.2890782823179256 0.0
0.7117642513219151 0.7986260816484686 0.0
0.6107809761678538 0.2702346672642885 0.0
0.7297653327379265 0.6107809761939241 0.0
0.4343119135823704 0.4441333128377498 0.0
0.3521994517644375 0.2895114466581221 0.0
0.3716526459766918 0.3747824068541784 0.0
0.6495629203385009 0.7110716608103871 0.0
0.6225656733470837 0.626024247724514 0.0
0.4801233617463698 0.624185260625533 0.0
0.6404753298956458 0.2038590667612978 0.0
0.796140933222699 0.6404753299217811 0.0
0.4159508543015736 0.5009311154941425 0.0
0.492990794680926 0.5876789699692937 0.0
0.2694925324376817 0.669766092937597 0.0
0.3768553888786695 0.4792486220862864 0.0
0.5670765529206324 0.4003920256447977 0.0
0.5146223492453408 0.2763244820477506 0.0
0.723672973541805 0.5146066627019997 0.0
0.577618210592189 0.5140965871860852 0.0
0.3160168358342002 0.4684127338755739 0.0
0.4672826377558319 0.6835513945797387 0.0
0.5888275370255736 0.6796418437166328 0.0
0.4809259593035227 0.324604251134601 0.0
[...]
<PointData Scalars="solution">
<DataArray type="Float64" Name="Real part" format="ascii">
0.0
0.0
0.0
0.0
0.0
0.0
0.0
0.0
0.0
0.0
0.0
0.0
0.0
0.0
0.0
0.0
0.0
0.0
0.0
0.0
0.0
0.0
0.0
0.0
0.0
0.0
0.0
0.0
0.0
0.0
0.0
0.0
0.0
0.0
0.0
0.0
0.0
0.0
0.0
0.0
0.0
0.0
0.0
0.0
0.0
0.0
0.0
0.0
0.0
0.0
0.0
0.0
0.0
0.0
0.0
0.0
0.0
0.0
0.0
0.0
0.0
0.0
0.0
0.0
0.0
0.0
0.0
0.0
0.0
0.0
0.0
0.0
0.0
0.0
0.0
0.0
0.0
0.0
0.0
0.0
0.0
0.0
0.0
0.0
0.0
0.0
0.0
0.0
0.0
0.0
0.0
0.0
0.0
0.0
0.0
0.0
0.0
0.0
0.0
0.0
0.0
0.0
0.0
0.0
0.0
0.0
0.0
0.0
0.0
0.0
0.0
0.0
0.0
0.0
0.0
0.0
0.0
0.0
0.0
0.0
0.0
0.0
0.0
0.0
0.0
0.0
0.0
0.0
0.0
0.0
0.0
0.0
0.0
0.0
0.0
0.0
0.0
0.0
0.0
0.0
0.0
0.0
0.0
0.0
0.0
0.0
0.0
0.0
0.0
0.0
0.0
0.0
0.0
0.0
0.0
0.0
0.0
0.0
0.0
0.0
0.0
0.0
0.0
0.0
0.0
0.0
0.0
0.0
0.0
0.0
0.0
0.0
0.0
0.0
0.0
0.0
0.0
0.0
0.0
0.0
0.0
0.0
0.0
0.0
0.0
0.0
0.0
0.0
0.0
0.0
0.0
0.0
0.0
0.0
0.0
0.0
0.0
0.0
0.0
0.0
0.0
0.0
0.0
0.0
0.0
0.0
0.0
0.0
0.0
0.0
0.0
0.0
0.0
0.0
0.0
0.0
0.0
0.0
0.0
0.0
0.0
0.0
0.0
0.0
0.0
0.0
0.0
0.0
0.0
0.0
0.0
0.0
0.0
0.0
0.0
0.0
0.0
0.0
0.0
0.0
0.0
0.0
0.0
0.0
0.0
0.0
0.0
0.0
0.0
0.0
0.0
0.0
0.0
0.0
0.0
0.0
0.0
0.0
0.0
0.0
0.0
0.0
0.0
0.0
0.0
0.0
0.0
0.0
0.0
0.0
0.0
0.0
0.0
0.0
0.0
0.0
0.0
0.0
0.0
0.0
0.0
0.0
0.0
0.0
0.0
0.0
0.0
0.0
0.0
0.0
0.0
0.0
0.0
0.0
0.0
0.0
0.0
0.0
0.0
0.0
0.0
0.0
0.0
0.0
0.0
0.0
0.0
0.0
0.0
0.0
0.0
0.0
0.0
0.0
0.0
0.0
0.0
0.0
0.0
0.0
0.0
0.0
0.0
0.0
0.0
0.0
0.0
0.0
0.0
0.0
0.0
0.0
0.0
0.0
0.0
0.0
0.0
0.0
0.0
0.0
0.0
0.0
0.0
0.0
0.0
0.0
0.0
0.0
0.0
0.0
0.0
0.0
0.0
0.0
0.0
0.0
0.0
0.0
0.0
0.0
0.0
0.0
0.0
0.0
0.0
0.0
0.0
0.0
0.0
0.0
0.0
0.0
0.0
</DataArray>
<DataArray type="Float64" Name="Imag part" format="ascii">
0.0
0.0
0.0
0.0
0.0
0.0
0.0
0.0
0.0
0.0
0.0
0.0
0.0
0.0
0.0
0.0
0.0
0.0
0.0
0.0
0.0
0.0
0.0
0.0
0.0
0.0
0.0
0.0
0.0
0.0
0.0
0.0
0.0
0.0
0.0
0.0
0.0
0.0
0.0
0.0
0.0
0.0
0.0
0.0
0.0
0.0
0.0
0.0
0.0
0.0
0.0
0.0
0.0
0.0
0.0
0.0
0.0
0.0
0.0
0.0
0.0
0.0
0.0
0.0
0.0
0.0
0.0
0.0
0.0
0.0
0.0
0.0
0.0
0.0
0.0
0.0
0.0
0.0
0.0
0.0
0.0
0.0
0.0
0.0
0.0
0.0
0.0
0.0
0.0
0.0
0.0
0.0
0.0
0.0
0.0
0.0
0.0
0.0
0.0
0.0
0.0
0.0
0.0
0.0
0.0
0.0
0.0
0.0
0.0
0.0
0.0
0.0
0.0
0.0
0.0
0.0
0.0
0.0
0.0
0.0
0.0
0.0
0.0
0.0
0.0
0.0
0.0
0.0
0.0
0.0
0.0
0.0
0.0
0.0
0.0
0.0
0.0
0.0
0.0
0.0
0.0
0.0
0.0
0.0
0.0
0.0
0.0
0.0
0.0
0.0
0.0
0.0
0.0
0.0
0.0
0.0
0.0
0.0
0.0
0.0
0.0
0.0
0.0
0.0
0.0
0.0
0.0
0.0
0.0
0.0
0.0
0.0
0.0
0.0
0.0
0.0
0.0
0.0
0.0
0.0
0.0
0.0
0.0
0.0
0.0
0.0
0.0
0.0
0.0
0.0
0.0
0.0
0.0
0.0
0.0
0.0
0.0
0.0
0.0
0.0
0.0
0.0
0.0
0.0
0.0
0.0
0.0
0.0
0.0
0.0
0.0
0.0
0.0
0.0
0.0
0.0
0.0
0.0
0.0
0.0
0.0
0.0
0.0
0.0
0.0
0.0
0.0
0.0
0.0
0.0
0.0
0.0
0.0
0.0
0.0
0.0
0.0
0.0
0.0
0.0
0.0
0.0
0.0
0.0
0.0
0.0
0.0
0.0
0.0
0.0
0.0
0.0
0.0
0.0
0.0
0.0
0.0
0.0
0.0
0.0
0.0
0.0
0.0
0.0
0.0
0.0
0.0
0.0
0.0
0.0
0.0
0.0
0.0
0.0
0.0
0.0
0.0
0.0
0.0
0.0
0.0
0.0
0.0
0.0
0.0
0.0
0.0
0.0
0.0
0.0
0.0
0.0
0.0
0.0
0.0
0.0
0.0
0.0
0.0
0.0
0.0
0.0
0.0
0.0
0.0
0.0
0.0
0.0
0.0
0.0
0.0
0.0
0.0
0.0
0.0
0.0
0.0
0.0
0.0
0.0
0.0
0.0
0.0
0.0
0.0
0.0
0.0
0.0
0.0
0.0
0.0
0.0
0.0
0.0
0.0
0.0
0.0
0.0
0.0
0.0
0.0
0.0
0.0
0.0
0.0
0.0
0.0
0.0
0.0
0.0
0.0
0.0
0.0
0.0
0.0
0.0
0.0
0.0
0.0
0.0
0.0
0.0
0.0
0.0
0.0
0.0
0.0
0.0
0.0
0.0
0.0
0.0
0.0
</DataArray>
</PointData>
</Piece>
</UnstructuredGrid>
</VTKFile>
