<VTKFile type="UnstructuredGrid" version="1.0" byte_order="LittleEndian" header_type="UInt64">
<UnstructuredGrid>
<Piece NumberOfPoints="391" NumberOfCells="722">
<Points>
<DataArray NumberOfComponents="3" type="Float64">
0.0 0.0 0.0
1.0 0.0 0.0
1.0 1.0 0.0
0.0 1.0 0.0
0.2 0.25 0.0
0.15 0.2 0.0
0.2 0.15 0.0
0.25 0.2 0.0
0.2 0.55 0.0
0.15 0.5 0.0
0.2 0.45 0.0
0.25 0.5 0.0
0.2 0.8500000000000001 0.0
0.15 0.8 0.0
0.2 0.75 0.0
0.25 0.8 0.0
0.5 0.25 0.0
0.45 0.2 0.0
0.5 0.15 0.0
0.55 0.2 0.0
0.5 0.55 0.0
0.45 0.5 0.0
0.5 0.45 0.0
0.55 0.5 0.0
0.5 0.8500000000000001 0.0
0.45 0.8 0.0
0.5 0.75 0.0
0.55 0.8 0.0
0.8 0.25 0.0
0.75 0.2 0.0
0.8 0.15 0.0
0.8500000000000001 0.2 0.0
0.8 0.55 0.0
0.75 0.5 0.0
0.8 0.45 0.0
0.8500000000000001 0.5 0.0
0.8 0.8500000000000001 0.0
0.75 0.8 0.0
0.8 0.75 0.0
0.8500000000000001 0.8 0.0
0.1646446608745421 0.2353553389931969 0.0
0.1646446610068031 0.1646446608745421 0.0
0.2353553391254579 0.1646446610068031 0.0
0.2353553389931969 0.2353553391254579 0.0
0.1646446608952583 0.5353553390139131 0.0
0.1646446610022432 0.464644660879102 0.0
0.2353553391069078 0.4646446609882531 0.0
0.2353553389885012 0.5353553391301535 0.0
0.1646446608952583 0.8353553390139131 0.0
0.1646446610114987 0.7646446608698465 0.0
0.2353553391047417 0.764644660986087 0.0
0.2353553389885012 0.8353553391301536 0.0
0.464644660879102 0.2353553389977568 0.0
0.4646446609882531 0.1646446608930921 0.0
0.5353553391301535 0.1646446610114987 0.0
0.5353553390139131 0.2353553391047417 0.0
0.4646446609191431 0.5353553390377979 0.0
0.4646446610370135 0.4646446608443318 0.0
0.5353553391259621 0.4646446610073074 0.0
0.5353553390335396 0.5353553390851152 0.0
0.4646446609191431 0.8353553390377979 0.0
0.4646446610073074 0.7646446608740379 0.0
0.5353553390851152 0.7646446609664604 0.0
0.5353553390335396 0.8353553390851153 0.0
0.7646446608698465 0.2353553389885012 0.0
0.764644660986087 0.1646446608952583 0.0
0.8353553391301536 0.1646446610114987 0.0
0.8353553390139131 0.2353553391047417 0.0
0.7646446609148848 0.5353553390335396 0.0
0.7646446609622022 0.4646446609191431 0.0
0.8353553391259622 0.4646446610073074 0.0
0.8353553390335396 0.5353553390851152 0.0
0.7646446609148848 0.8353553390335396 0.0
0.7646446609664604 0.7646446609148848 0.0
0.8353553390851153 0.7646446609664604 0.0
0.8353553390335396 0.8353553390851153 0.0
0.3499999999999999 0.3500000000000001 0.0
0.3499999999999999 0.6499999999999999 0.0
0.6473644356934427 0.3496269852619729 0.0
0.6500000000000001 0.6500000000000001 0.0
0.4583333333333333 0.35 0.0
0.2399686363257433 0.3481967129171821 0.0
0.35 0.2416666666666667 0.0
0.65 0.2416666666666666 0.0
0.2404874314211836 0.650741365668503 0.0
0.35 0.4583333333333335 0.0
0.4583333333333333 0.65 0.0
0.6500000000000001 0.4583333333333332 0.0
0.7600404954876467 0.3481303969746916 0.0
0.3481303969594854 0.7600404954743835 0.0
0.6506316090218678 0.7594757579349837 0.0
0.7583333333333337 0.6500000000000001 0.0
0.5543875290826419 0.364952736934346 0.0
0.6281515197999076 0.5571401543071522 0.0
0.5495039109432027 0.6669937706276886 0.0
0.3350472630653402 0.5543875290826964 0.0
0.5871004361234672 0.2963517508531116 0.0
0.4035248943255086 0.5870572319767361 0.0
0.7036482491495735 0.5871004361230706 0.0
0.4095853735080316 0.4107348383763576 0.0
0.4107361241909442 0.2899333179423651 0.0
0.2898513226671833 0.2898513226671834 0.0
0.7103795933912478 0.2885560492200747 0.0
0.2888539851584965 0.4092296864358319 0.0
0.4111568569497845 0.7104177576306473 0.0
0.2903282422582339 0.7094766447639707 0.0
0.7097402587865804 0.409667998509507 0.0
0.7093807814244849 0.7096637690535222 0.0
0.5757576639895366 0.5934450408933405 0.0
0.2742893992970423 0.5907080254298438 0.0
0.590708025429277 0.4257106007035643 0.0
0.5888462273653916 0.7249675886220239 0.0
0.5174013060282349 0.3173311452075257 0.0
0.3826688547938008 0.517401306027756 0.0
0.6826688547935644 0.5174013060278413 0.0
0.5093520464007314 0.6202292086916971 0.0
0.4981159893048188 0.3940710066319345 0.0
0.6091203914685013 0.4955611555134115 0.0
0.4956123216120071 0.6915761389978341 0.0
0.3059289933641749 0.4981159893040006 0.0
0.5926842712831094 0.2383910822538711 0.0
0.7616089177718327 0.592684271293819 0.0
0.2939296111843356 0.2330259100882316 0.0
0.2336235457141617 0.2962748528684185 0.0
0.4077924756104265 0.2350818557462883 0.0
0.2339025950440469 0.4087203824379081 0.0
0.7054964172299596 0.2340247346852367 0.0
0.2332681143576917 0.7059807350395039 0.0
0.7659752653147632 0.2945035827700398 0.0
0.2945035827700396 0.7659752653147628 0.0
0.4087203824384579 0.7660974049547324 0.0
0.7656126969255255 0.4087892044599588 0.0
0.7058535849563642 0.7668337446242723 0.0
0.7663764542832314 0.7037251471365775 0.0
0.4601106386936329 0.5919575462900033 0.0
0.2958333333333333 0.6411821829852107 0.0
0.6425616008642866 0.4045330308137873 0.0
0.6411821829776574 0.7041666666666667 0.0
0.4651121924429275 0.2953668504047845 0.0
0.4077563014273691 0.4649729498043391 0.0
0.7108938123935116 0.4647993644000941 0.0
0.4041666666666665 0.3440179893338497 0.0
0.3546650663412003 0.2968115602914644 0.0
0.2958333333333332 0.3440179893338502 0.0
0.3559820106661498 0.4041666666666668 0.0
0.6559820106661495 0.2958333333333333 0.0
0.4035437496341041 0.6556997188567408 0.0
0.7055427304470067 0.3471465878541564 0.0
0.3459829601453839 0.7044806425898797 0.0
0.7041666666666669 0.6559820106661493 0.0
0.2217337876550237 0.5947326986425647 0.0
0.5965254491793786 0.7737183722116945 0.0
0.5988322727896861 0.6427584683324709 0.0
0.6121796062763101 0.352831695664283 0.0
0.3471061352132355 0.6126188669941947 0.0
0.6526336219212916 0.6034917091381211 0.0
0.5802931724945697 0.5468527409798054 0.0
0.5420562356766421 0.4224338777559339 0.0
0.2770651716934388 0.5488869812660174 0.0
0.5512732134561602 0.7255112098803835 0.0
0.4581286225401086 0.4184081079166122 0.0
0.4568963712891623 0.7144204221759496 0.0
0.2815818040530865 0.4580511855102498 0.0
0.5458417321113019 0.2804392337367444 0.0
0.4195607662746288 0.5458417321074579 0.0
0.7195607662726011 0.5458417321081434 0.0
0.557515083410674 0.3278628115591709 0.0
0.372119566325405 0.5575089113890873 0.0
0.6816505670643564 0.5563292969151861 0.0
0.5782628818834021 0.469453908155296 0.0
0.53399145300716 0.5799768497434583 0.0
0.6778189550147194 0.3823297223180971 0.0
0.3193307280250514 0.3794794053578681 0.0
0.6031916925963016 0.6850593319137792 0.0
0.6152952653512643 0.591209821795225 0.0
0.6073381182080475 0.3928418132212159 0.0
0.308035105332692 0.6066455306249985 0.0
0.5188378951583367 0.6572432682506582 0.0
0.6227879634833712 0.2720855369568323 0.0
0.429700569064446 0.6213403899621088 0.0
0.7279144630431417 0.6227879634831336 0.0
0.3134488757566931 0.6735082221751993 0.0
0.6734977137673033 0.6865499687462943 0.0
0.4975966715703078 0.3555718576784697 0.0
0.645525065217329 0.4987375169206325 0.0
0.3444281423195975 0.4975966715687496 0.0
0.5581218400959111 0.6300991360607873 0.0
0.2733388455843804 0.6725484598705898 0.0
0.6721026558922277 0.4289342995119527 0.0
0.6725120528333264 0.7266821724045224 0.0
0.3199859812942599 0.3131420673639835 0.0
0.4277957927430196 0.374236772038146 0.0
0.3253561663447778 0.2723420063769271 0.0
0.3864288182737801 0.3818208185265429 0.0
0.2719867592655735 0.3730328830954735 0.0
0.3263740953720379 0.4264593924975556 0.0
0.3798287820100137 0.6871339092923172 0.0
0.3727683006350324 0.7288288702270883 0.0
0.7277202940534286 0.3736809353014865 0.0
0.4387648948853521 0.6828926709407204 0.0
0.2671606514449669 0.2571445108356198 0.0
0.4314013444324217 0.258113535650664 0.0
0.7418661398050755 0.268731737101184 0.0
0.2572559293287268 0.7326262989653355 0.0
0.7373179166358044 0.4370124034079058 0.0
0.7324985765604758 0.7427494920323041 0.0
0.4363752609421772 0.3182159251115838 0.0
0.3817840748884159 0.4363752609421775 0.0
0.3836969940900222 0.2625331786118325 0.0
0.2641424860352013 0.3186306883467298 0.0
0.6811404121496059 0.2659726027584425 0.0
0.7330136538025631 0.3161689413208582 0.0
0.3186306883467292 0.7358575139647991 0.0
0.735142254190467 0.6808169136528346 0.0
0.6227274273322422 0.3150695004698646 0.0
0.3849304995316143 0.6227274273313508 0.0
0.6848450300225657 0.6228530669982835 0.0
0.6135189012351407 0.4544448152399559 0.0
0.2433956689478596 0.5710690127919743 0.0
0.5706540787777861 0.7566824743053322 0.0
0.2609546315102656 0.4304453326073575 0.0
0.4296775295763778 0.7445569309503 0.0
0.4349261530926503 0.442520127187254 0.0
0.3739959845115797 0.3254054197389858 0.0
0.6854614160240172 0.3145385839759827 0.0
0.2685004784059217 0.6276089653379894 0.0
0.6243810588594206 0.7347027911402586 0.0
0.6276599636114613 0.6234587701321431 0.0
0.4768864882821318 0.6207884039708569 0.0
0.5009486165128977 0.2844933278929815 0.0
0.4159508543015735 0.5009311154941426 0.0
0.7164010525078831 0.50090392679795 0.0
0.4656902553472885 0.3886758455029358 0.0
0.3114099801205898 0.4654882785963949 0.0
0.4923625899774758 0.586593853656277 0.0
0.4792486220862865 0.3231446111213306 0.0
0.3768553888786692 0.4792486220862862 0.0
0.6826033652105242 0.4723296404325017 0.0
0.5671218921311638 0.4003939192333217 0.0
0.3041246296048341 0.5698745953088764 0.0
0.5675942382915344 0.6927211264531756 0.0
0.5776182081774853 0.5140966147196722 0.0
0.5310404634163444 0.34661667228055 0.0
0.3533824102829797 0.5310401420906734 0.0
0.6522270038082836 0.5349978372892435 0.0
0.5751875545928478 0.2641232307793983 0.0
0.7358767692356145 0.575187554598797 0.0
0.4673122050858198 0.6789739314584686 0.0
0.562557137736954 0.4406740491267765 0.0
0.6085444971441977 0.5318419919306588 0.0
0.4370308789404246 0.574532141321551 0.0
0.5110976285887318 0.4206597222222224 0.0
0.2755320391828024 0.5161304005913072 0.0
0.5161108279979969 0.7244815464631671 0.0
0.6321074702013894 0.6748883283122041 0.0
0.3228846899271908 0.6367909605559205 0.0
0.6374525432113614 0.3764326494558712 0.0
0.2647524459691664 0.2268213413882081 0.0
0.2877985123322225 0.196677608265813 0.0
0.325154570442495 0.223015056333908 0.0
0.3501130004798096 0.2021971215525696 0.0
[...]
<PointData Scalars="solution">
<DataArray type="Float64" Name="Real part" format="ascii">
0.5426679339185798
0.5426656009933434
0.5425892669744539
0.5425846008345875
0.5009723324445117
0.5084914245906825
0.5084778577661075
0.5010908737498362
0.4866725936335378
0.4893397732056339
0.4887929070008062
0.4751424466645434
0.5084094355195828
0.5083714680167318
0.5009086052928012
0.500877876066933
0.4749661532644893
0.4886831711689248
0.48935655420412777
0.4892631717249589
0.4617552802277973
0.46219960413995814
0.46253460052625794
0.4620868729773839
0.4892984617508345
0.4887297867819484
0.4751818277030815
0.48660814729861046
0.5011073856097377
0.5014213075846824
0.5085066434231159
0.5084744212096889
0.4892235889311443
0.4750057171895162
0.4886581854023765
0.4893150850659394
0.5083732217413454
0.5009248108734946
0.5013282243762458
0.5084322331428108
0.5039893546703732
0.5123172796694268
0.5041966007742678
0.49650758368573983
0.4897793095693563
0.4899632248498598
0.47941744773310074
0.4791832109368358
0.512224279436135
0.5040768996726029
0.4963683864130298
0.5039095307903215
0.4797385490138503
0.48978028988689676
0.4906439460618734
0.4793455619894201
0.4613455674913099
0.46183211692763493
0.4619678748949048
0.46155248167450436
0.4899148533598444
0.4792656878590643
0.4792207115852648
0.4897427443840486
0.4965789605194333
0.5048656470482995
0.5123224984460025
0.5041909700362509
0.4793291259060521
0.4797491807302526
0.48973992989517917
0.49059909402939095
0.5040759333724452
0.4964917108762269
0.5047941841942496
0.5122359068461173
0.45159406480214237
0.45146702291015695
0.4512353453167918
0.4512995342563979
0.44798705759734947
0.4724332704495433
0.47181301346132937
0.4714875728141835
0.47217885327177045
0.44795285592347756
0.44790997851534337
0.4480357624913856
0.472407757058605
0.4723779671161768
0.4721740769964995
0.4714305883357169
0.4470568487469375
0.4467960126630956
0.44975185049308125
0.44958650069387873
0.4562561157764151
0.4461426621252446
0.456191171682526
0.4462300524484306
0.45777491991669783
0.46869110915253487
0.46908879937271
0.4579439224885532
0.45767834247815475
0.4683306765283843
0.45758252734332655
0.4682600049264745
0.4466336258612245
0.46148382520707104
0.4468497788571445
0.4612729441734186
0.4525507932413788
0.4473697093875872
0.4524571783465202
0.4472937848107465
0.4483901501095345
0.44788685184631755
0.45432925756678605
0.4550828632496084
0.47153311191466063
0.47149445947247326
0.4811011178326341
0.48053872806615944
0.472671186778087
0.4730546606644788
0.4807330963987723
0.4808843872769973
0.4807752231794396
0.4806565638400924
0.4730060901577095
0.472860268067693
0.4808912099927688
0.480422470301371
0.4485605153185192
0.45860461791213375
0.44761114854703077
0.4585635025588802
0.457433235718121
0.44889539408957946
0.4591066796147929
0.44884623152862824
0.45871828378496116
0.4598934765324754
0.4477950462389965
0.4597166147563012
0.44878925006846365
0.4597737857726746
0.4597456556724688
0.45965955076209847
0.47725219685014514
0.47557292675553986
0.44754131282663595
0.4485328080242959
0.4491367301148276
0.44868463715268686
0.4493716277027602
0.4502125927975385
0.461840587943327
0.46252320979389305
0.4497322963698139
0.45946416661046013
0.4609182657176794
0.46087417490370397
0.449247845138233
0.4609076816163443
0.4503671784156457
0.44650432945277263
0.4519865050783415
0.4509148787739759
0.45004598555984276
0.45231392333361364
0.45297239492259006
0.4529065162914537
0.4460917590079741
0.44614526161689533
0.45432362723163244
0.44865856220774614
0.46214703851749644
0.44619076054023177
0.4620954425378612
0.45872523213806726
0.4586534486591125
0.44775227226010833
0.44767461566703853
0.4485541417294301
0.44637723366241316
0.46608051669291534
0.4504931400000058
0.4660317858790636
0.4597620559505309
0.4465132162948792
0.4666590053682596
0.4467011038185421
0.46264465596041204
0.45075812482433625
0.4540155333526082
0.46282925810389774
0.46250582145825797
0.45216897058634004
0.4806547705387752
0.46664552474932697
0.479990134448298
0.48044791470504367
0.46554043142633617
0.4804404759261294
0.45203930356669836
0.4465658053672295
0.4646268988320767
0.4694602272101808
0.4686961513637557
0.468950903692005
0.469341144901672
0.4688498630667664
0.4537198252944363
0.44685195353664625
0.45366534171305933
0.44686427608976387
0.47128890572629667
0.47136360116329723
0.4657942346522887
0.4674921576891456
0.45056347554367215
0.45254567684648717
0.4602054249908197
0.4635685282346347
0.464115259258263
0.44771703176525945
0.4472338017384855
0.4608933277133454
0.45113729499068594
0.4611343617258943
0.4471497802736872
0.4533959763495156
0.45062940094181964
0.45150776797380254
0.447198005865431
0.4523742684971005
0.4466218367475881
0.4546903870404661
0.4540267155698086
0.4524407256749858
0.44842307461027214
0.44784975386713133
0.4481416079901663
0.46441629686943636
0.46439116075599446
0.4517263478022286
0.4507181466665872
0.44734043481721303
0.4483812332110842
0.4521228180704833
0.46365847147525796
0.46366942999585975
0.45293617011008414
0.453722976033402
0.4483722836537926
0.48940293417270014
0.49152879264126903
0.4795100450736011
0.4838661094637345
0.4806396535314091
0.4894380342901864
0.4915375976241346
0.47996577965430615
0.4840002030554265
0.48063472010419367
0.48924449039384843
0.49127079926712197
0.47922823458529706
0.4815939689964397
0.48832931930133705
0.4914490724566888
0.47994455521442597
0.4840144499739378
0.48076811560017607
0.4887779121361418
0.4920642497537304
0.48288216564685815
0.4836552540753331
0.48155676671923203
0.47389903412156403
0.477515931863185
0.4892813487229467
0.49126717757559696
0.4792565404302892
0.4815890753577964
0.48850249473075635
0.49136765596211307
0.47989019016455886
0.4839487988563614
0.48070801527866186
0.48840985555128263
0.49190401703049624
0.48281991367191307
0.4836039213936561
0.48151506609091976
0.47385019910153614
0.4774592128181982
0.447322279318805
0.4530306788613646
0.4539472802319775
0.4765491205077823
0.4765174468796121
0.4774500388980374
0.4776618095898977
0.46631972191891696
0.4678656335603672
0.45473967143315863
0.4464430799663499
0.45352237676182333
0.47338117716041617
0.47414296798474254
0.47335003421375826
0.4733232864461903
0.4485001637865475
0.47371362888429175
0.47303198890861126
0.47310828543959593
0.4737448106829144
0.4491174412926161
0.4560298003137415
0.4740086291071808
0.47334494793032383
0.4655542454910366
0.4657724782795473
0.4645646159719514
0.44622676961309526
0.4472229842404351
0.47560988379898667
0.47515192567208137
0.47508099680465793
0.47503887548313306
0.44945284076004655
0.44701875069803926
0.4489326728508177
0.4548645168517223
0.4529884321695519
0.45561276254623384
0.4790904927769348
0.49114981587202117
0.4926821065812809
0.47903687642450526
0.49109020967861017
0.4925948661214763
0.4709503895434278
0.46852363090598026
0.4686563334428556
0.4687163746437197
0.4555695651587051
0.44957109708444554
0.4533957335479203
0.46518386369992826
0.46471899845381115
0.4468148325651563
0.45547359216398686
0.45578774156544355
0.4751630700740022
0.47526587801722264
0.4752198387450346
0.47571867107916516
0.475563731435026
0.4557072995089626
0.45034565936014603
0.45890684873956405
0.45520127890724205
0.4492339123563037
0.44858268235070786
0.4523816401572436
0.44769428902679514
0.46482146717339384
0.46476465630498226
0.45734794930270206
0.46276113075968733
0.4627556679324398
0.4506882054909559
0.446792603379792
0.4480908805650892
0.4511338351067954
0.448428969955479
0.4463473908372992
0.447646243797995
0.46433848140304906
0.4654895729626146
0.4640430300319202
0.4654846331219343
0.46525692239510075
0.4475497560828889
0.447031150500216
0.45623859271107
0.47185017745880775
</DataArray>
<DataArray type="Float64" Name="Imag part" format="ascii">
0.0
0.0
0.0
0.0
0.0
0.0
0.0
0.0
0.0
0.0
0.0
0.0
0.0
0.0
0.0
0.0
0.0
0.0
0.0
0.0
0.0
0.0
0.0
0.0
0.0
0.0
0.0
0.0
0.0
0.0
0.0
0.0
0.0
0.0
0.0
0.0
0.0
0.0
0.0
0.0
0.0
0.0
0.0
0.0
0.0
0.0
0.0
0.0
0.0
0.0
0.0
0.0
0.0
0.0
0.0
0.0
0.0
0.0
0.0
0.0
0.0
0.0
0.0
0.0
0.0
0.0
0.0
0.0
0.0
0.0
0.0
0.0
0.0
0.0
0.0
0.0
0.0
0.0
0.0
0.0
0.0
0.0
0.0
0.0
0.0
0.0
0.0
0.0
0.0
0.0
0.0
0.0
0.0
0.0
0.0
0.0
0.0
0.0
0.0
0.0
0.0
0.0
0.0
0.0
0.0
0.0
0.0
0.0
0.0
0.0
0.0
0.0
0.0
0.0
0.0
0.0
0.0
0.0
0.0
0.0
0.0
0.0
0.0
0.0
0.0
0.0
0.0
0.0
0.0
0.0
0.0
0.0
0.0
0.0
0.0
0.0
0.0
0.0
0.0
0.0
0.0
0.0
0.0
0.0
0.0
0.0
0.0
0.0
0.0
0.0
0.0
0.0
0.0
0.0
0.0
0.0
0.0
0.0
0.0
0.0
0.0
0.0
0.0
0.0
0.0
0.0
0.0
0.0
0.0
0.0
0.0
0.0
0.0
0.0
0.0
0.0
0.0
0.0
0.0
0.0
0.0
0.0
0.0
0.0
0.0
0.0
0.0
0.0
0.0
0.0
0.0
0.0
0.0
0.0
0.0
0.0
0.0
0.0
0.0
0.0
0.0
0.0
0.0
0.0
0.0
0.0
0.0
0.0
0.0
0.0
0.0
0.0
0.0
0.0
0.0
0.0
0.0
0.0
0.0
0.0
0.0
0.0
0.0
0.0
0.0
0.0
0.0
0.0
0.0
0.0
0.0
0.0
0.0
0.0
0.0
0.0
0.0
0.0
0.0
0.0
0.0
0.0
0.0
0.0
0.0
0.0
0.0
0.0
0.0
0.0
0.0
0.0
0.0
0.0
0.0
0.0
0.0
0.0
0.0
0.0
0.0
0.0
0.0
0.0
0.0
0.0
0.0
0.0
0.0
0.0
0.0
0.0
0.0
0.0
0.0
0.0
0.0
0.0
0.0
0.0
0.0
0.0
0.0
0.0
0.0
0.0
0.0
0.0
0.0
0.0
0.0
0.0
0.0
0.0
0.0
0.0
0.0
0.0
0.0
0.0
0.0
0.0
0.0
0.0
0.0
0.0
0.0
0.0
0.0
0.0
0.0
0.0
0.0
0.0
0.0
0.0
0.0
0.0
0.0
0.0
0.0
0.0
0.0
0.0
0.0
0.0
0.0
0.0
0.0
0.0
0.0
0.0
0.0
0.0
0.0
0.0
0.0
0.0
0.0
0.0
0.0
0.0
0.0
0.0
0.0
0.0
0.0
0.0
0.0
0.0
0.0
0.0
0.0
0.0
0.0
0.0
0.0
0.0
0.0
0.0
0.0
0.0
0.0
0.0
0.0
0.0
0.0
0.0
0.0
0.0
0.0
0.0
0.0
0.0
0.0
0.0
0.0
0.0
0.0
0.0
0.0
0.0
0.0
0.0
0.0
0.0
0.0
0.0
0.0
0.0
0.0
</DataArray>
</PointData>
</Piece>
</UnstructuredGrid>
</VTKFile>
