<VTKFile type="UnstructuredGrid" version="1.0" byte_order="LittleEndian" header_type="UInt64">
<UnstructuredGrid>
<Piece NumberOfPoints="391" NumberOfCells="722">
<Points>
<DataArray NumberOfComponents="3" type="Float64">
0.0 0.0 0.0
1.0 0.0 0.0
1.0 1.0 0.0
0.0 1.0 0.0
0.2 0.25 0.0
0.15 0.2 0.0
0.2 0.15 0.0
0.25 0.2 0.0
0.2 0.55 0.0
0.15 0.5 0.0
0.2 0.45 0.0
0.25 0.5 0.0
0.2 0.8500000000000001 0.0
0.15 0.8 0.0
0.2 0.75 0.0
0.25 0.8 0.0
0.5 0.25 0.0
0.45 0.2 0.0
0.5 0.15 0.0
0.55 0.2 0.0
0.5 0.55 0.0
0.45 0.5 0.0
0.5 0.45 0.0
0.55 0.5 0.0
0.5 0.8500000000000001 0.0
0.45 0.8 0.0
0.5 0.75 0.0
0.55 0.8 0.0
0.8 0.25 0.0
0.75 0.2 0.0
0.8 0.15 0.0
0.8500000000000001 0.2 0.0
0.8 0.55 0.0
0.75 0.5 0.0
0.8 0.45 0.0
0.8500000000000001 0.5 0.0
0.8 0.8500000000000001 0.0
0.75 0.8 0.0
0.8 0.75 0.0
0.8500000000000001 0.8 0.0
0.1646446608745421 0.2353553389931969 0.0
0.1646446610068031 0.1646446608745421 0.0
0.2353553391254579 0.1646446610068031 0.0
0.2353553389931969 0.2353553391254579 0.0
0.1646446608952583 0.5353553390139131 0.0
0.1646446610022432 0.464644660879102 0.0
0.2353553391069078 0.4646446609882531 0.0
0.2353553389885012 0.5353553391301535 0.0
0.1646446608952583 0.8353553390139131 0.0
0.1646446610114987 0.7646446608698465 0.0
0.2353553391047417 0.764644660986087 0.0
0.2353553389885012 0.8353553391301536 0.0
0.464644660879102 0.2353553389977568 0.0
0.4646446609882531 0.1646446608930921 0.0
0.5353553391301535 0.1646446610114987 0.0
0.5353553390139131 0.2353553391047417 0.0
0.4646446609191431 0.5353553390377979 0.0
0.4646446610370135 0.4646446608443318 0.0
0.5353553391259621 0.4646446610073074 0.0
0.5353553390335396 0.5353553390851152 0.0
0.4646446609191431 0.8353553390377979 0.0
0.4646446610073074 0.7646446608740379 0.0
0.5353553390851152 0.7646446609664604 0.0
0.5353553390335396 0.8353553390851153 0.0
0.7646446608698465 0.2353553389885012 0.0
0.764644660986087 0.1646446608952583 0.0
0.8353553391301536 0.1646446610114987 0.0
0.8353553390139131 0.2353553391047417 0.0
0.7646446609148848 0.5353553390335396 0.0
0.7646446609622022 0.4646446609191431 0.0
0.8353553391259622 0.4646446610073074 0.0
0.8353553390335396 0.5353553390851152 0.0
0.7646446609148848 0.8353553390335396 0.0
0.7646446609664604 0.7646446609148848 0.0
0.8353553390851153 0.7646446609664604 0.0
0.8353553390335396 0.8353553390851153 0.0
0.3499999999999999 0.3500000000000001 0.0
0.3499999999999999 0.6499999999999999 0.0
0.6473644356934427 0.3496269852619729 0.0
0.6500000000000001 0.6500000000000001 0.0
0.4583333333333333 0.35 0.0
0.2399686363257433 0.3481967129171821 0.0
0.35 0.2416666666666667 0.0
0.65 0.2416666666666666 0.0
0.2404874314211836 0.650741365668503 0.0
0.35 0.4583333333333335 0.0
0.4583333333333333 0.65 0.0
0.6500000000000001 0.4583333333333332 0.0
0.7600404954876467 0.3481303969746916 0.0
0.3481303969594854 0.7600404954743835 0.0
0.6506316090218678 0.7594757579349837 0.0
0.7583333333333337 0.6500000000000001 0.0
0.5543875290826419 0.364952736934346 0.0
0.6281515197999076 0.5571401543071522 0.0
0.5495039109432027 0.6669937706276886 0.0
0.3350472630653402 0.5543875290826964 0.0
0.5871004361234672 0.2963517508531116 0.0
0.4035248943255086 0.5870572319767361 0.0
0.7036482491495735 0.5871004361230706 0.0
0.4095853735080316 0.4107348383763576 0.0
0.4107361241909442 0.2899333179423651 0.0
0.2898513226671833 0.2898513226671834 0.0
0.7103795933912478 0.2885560492200747 0.0
0.2888539851584965 0.4092296864358319 0.0
0.4111568569497845 0.7104177576306473 0.0
0.2903282422582339 0.7094766447639707 0.0
0.7097402587865804 0.409667998509507 0.0
0.7093807814244849 0.7096637690535222 0.0
0.5757576639895366 0.5934450408933405 0.0
0.2742893992970423 0.5907080254298438 0.0
0.590708025429277 0.4257106007035643 0.0
0.5888462273653916 0.7249675886220239 0.0
0.5174013060282349 0.3173311452075257 0.0
0.3826688547938008 0.517401306027756 0.0
0.6826688547935644 0.5174013060278413 0.0
0.5093520464007314 0.6202292086916971 0.0
0.4981159893048188 0.3940710066319345 0.0
0.6091203914685013 0.4955611555134115 0.0
0.4956123216120071 0.6915761389978341 0.0
0.3059289933641749 0.4981159893040006 0.0
0.5926842712831094 0.2383910822538711 0.0
0.7616089177718327 0.592684271293819 0.0
0.2939296111843356 0.2330259100882316 0.0
0.2336235457141617 0.2962748528684185 0.0
0.4077924756104265 0.2350818557462883 0.0
0.2339025950440469 0.4087203824379081 0.0
0.7054964172299596 0.2340247346852367 0.0
0.2332681143576917 0.7059807350395039 0.0
0.7659752653147632 0.2945035827700398 0.0
0.2945035827700396 0.7659752653147628 0.0
0.4087203824384579 0.7660974049547324 0.0
0.7656126969255255 0.4087892044599588 0.0
0.7058535849563642 0.7668337446242723 0.0
0.7663764542832314 0.7037251471365775 0.0
0.4601106386936329 0.5919575462900033 0.0
0.2958333333333333 0.6411821829852107 0.0
0.6425616008642866 0.4045330308137873 0.0
0.6411821829776574 0.7041666666666667 0.0
0.4651121924429275 0.2953668504047845 0.0
0.4077563014273691 0.4649729498043391 0.0
0.7108938123935116 0.4647993644000941 0.0
0.4041666666666665 0.3440179893338497 0.0
0.3546650663412003 0.2968115602914644 0.0
0.2958333333333332 0.3440179893338502 0.0
0.3559820106661498 0.4041666666666668 0.0
0.6559820106661495 0.2958333333333333 0.0
0.4035437496341041 0.6556997188567408 0.0
0.7055427304470067 0.3471465878541564 0.0
0.3459829601453839 0.7044806425898797 0.0
0.7041666666666669 0.6559820106661493 0.0
0.2217337876550237 0.5947326986425647 0.0
0.5965254491793786 0.7737183722116945 0.0
0.5988322727896861 0.6427584683324709 0.0
0.6121796062763101 0.352831695664283 0.0
0.3471061352132355 0.6126188669941947 0.0
0.6526336219212916 0.6034917091381211 0.0
0.5802931724945697 0.5468527409798054 0.0
0.5420562356766421 0.4224338777559339 0.0
0.2770651716934388 0.5488869812660174 0.0
0.5512732134561602 0.7255112098803835 0.0
0.4581286225401086 0.4184081079166122 0.0
0.4568963712891623 0.7144204221759496 0.0
0.2815818040530865 0.4580511855102498 0.0
0.5458417321113019 0.2804392337367444 0.0
0.4195607662746288 0.5458417321074579 0.0
0.7195607662726011 0.5458417321081434 0.0
0.557515083410674 0.3278628115591709 0.0
0.372119566325405 0.5575089113890873 0.0
0.6816505670643564 0.5563292969151861 0.0
0.5782628818834021 0.469453908155296 0.0
0.53399145300716 0.5799768497434583 0.0
0.6778189550147194 0.3823297223180971 0.0
0.3193307280250514 0.3794794053578681 0.0
0.6031916925963016 0.6850593319137792 0.0
0.6152952653512643 0.591209821795225 0.0
0.6073381182080475 0.3928418132212159 0.0
0.308035105332692 0.6066455306249985 0.0
0.5188378951583367 0.6572432682506582 0.0
0.6227879634833712 0.2720855369568323 0.0
0.429700569064446 0.6213403899621088 0.0
0.7279144630431417 0.6227879634831336 0.0
0.3134488757566931 0.6735082221751993 0.0
0.6734977137673033 0.6865499687462943 0.0
0.4975966715703078 0.3555718576784697 0.0
0.645525065217329 0.4987375169206325 0.0
0.3444281423195975 0.4975966715687496 0.0
0.5581218400959111 0.6300991360607873 0.0
0.2733388455843804 0.6725484598705898 0.0
0.6721026558922277 0.4289342995119527 0.0
0.6725120528333264 0.7266821724045224 0.0
0.3199859812942599 0.3131420673639835 0.0
0.4277957927430196 0.374236772038146 0.0
0.3253561663447778 0.2723420063769271 0.0
0.3864288182737801 0.3818208185265429 0.0
0.2719867592655735 0.3730328830954735 0.0
0.3263740953720379 0.4264593924975556 0.0
0.3798287820100137 0.6871339092923172 0.0
0.3727683006350324 0.7288288702270883 0.0
0.7277202940534286 0.3736809353014865 0.0
0.4387648948853521 0.6828926709407204 0.0
0.2671606514449669 0.2571445108356198 0.0
0.4314013444324217 0.258113535650664 0.0
0.7418661398050755 0.268731737101184 0.0
0.2572559293287268 0.7326262989653355 0.0
0.7373179166358044 0.4370124034079058 0.0
0.7324985765604758 0.7427494920323041 0.0
0.4363752609421772 0.3182159251115838 0.0
0.3817840748884159 0.4363752609421775 0.0
0.3836969940900222 0.2625331786118325 0.0
0.2641424860352013 0.3186306883467298 0.0
0.6811404121496059 0.2659726027584425 0.0
0.7330136538025631 0.3161689413208582 0.0
0.3186306883467292 0.7358575139647991 0.0
0.735142254190467 0.6808169136528346 0.0
0.6227274273322422 0.3150695004698646 0.0
0.3849304995316143 0.6227274273313508 0.0
0.6848450300225657 0.6228530669982835 0.0
0.6135189012351407 0.4544448152399559 0.0
0.2433956689478596 0.5710690127919743 0.0
0.5706540787777861 0.7566824743053322 0.0
0.2609546315102656 0.4304453326073575 0.0
0.4296775295763778 0.7445569309503 0.0
0.4349261530926503 0.442520127187254 0.0
0.3739959845115797 0.3254054197389858 0.0
0.6854614160240172 0.3145385839759827 0.0
0.2685004784059217 0.6276089653379894 0.0
0.6243810588594206 0.7347027911402586 0.0
0.6276599636114613 0.6234587701321431 0.0
0.4768864882821318 0.6207884039708569 0.0
0.5009486165128977 0.2844933278929815 0.0
0.4159508543015735 0.5009311154941426 0.0
0.7164010525078831 0.50090392679795 0.0
0.4656902553472885 0.3886758455029358 0.0
0.3114099801205898 0.4654882785963949 0.0
0.4923625899774758 0.586593853656277 0.0
0.4792486220862865 0.3231446111213306 0.0
0.3768553888786692 0.4792486220862862 0.0
0.6826033652105242 0.4723296404325017 0.0
0.5671218921311638 0.4003939192333217 0.0
0.3041246296048341 0.5698745953088764 0.0
0.5675942382915344 0.6927211264531756 0.0
0.5776182081774853 0.5140966147196722 0.0
0.5310404634163444 0.34661667228055 0.0
0.3533824102829797 0.5310401420906734 0.0
0.6522270038082836 0.5349978372892435 0.0
0.5751875545928478 0.2641232307793983 0.0
0.7358767692356145 0.575187554598797 0.0
0.4673122050858198 0.6789739314584686 0.0
0.562557137736954 0.4406740491267765 0.0
0.6085444971441977 0.5318419919306588 0.0
0.4370308789404246 0.574532141321551 0.0
0.5110976285887318 0.4206597222222224 0.0
0.2755320391828024 0.5161304005913072 0.0
0.5161108279979969 0.7244815464631671 0.0
0.6321074702013894 0.6748883283122041 0.0
0.3228846899271908 0.6367909605559205 0.0
0.6374525432113614 0.3764326494558712 0.0
0.2647524459691664 0.2268213413882081 0.0
0.2877985123322225 0.196677608265813 0.0
0.325154570442495 0.223015056333908 0.0
0.3501130004798096 0.2021971215525696 0.0
[...]
<PointData Scalars="solution">
<DataArray type="Float64" Name="Real part" format="ascii">
0.3741057349845991
0.3741053953183465
0.3740294717330302
0.3740222293861895
0.32937377741638063
0.33807965232935117
0.3380674779912982
0.3294915437881173
0.31426214837387856
0.3181325776228891
0.3163984466183829
0.300680282988377
0.33799716011755804
0.33796139436535416
0.3293045923185373
0.32927742022050227
0.3004869833654685
0.31628727632037595
0.31815272878757883
0.31685394356076113
0.28552637152849597
0.28597650892334375
0.2863188161095998
0.28586451219872017
0.31809216187435907
0.3163356196479213
0.30071668862958256
0.31419833104048817
0.32951139201829943
0.32983644760342745
0.338088430304164
0.33806397490729334
0.3168141393001064
0.3005194516597597
0.31626254278581317
0.318112176629582
0.3379633777866727
0.3293233027536654
0.32974116559478145
0.33801381689972076
0.33320235190252173
0.342069830729775
0.33340938809266396
0.3243863350386163
0.31834277294682617
0.31853089300677523
0.30558101851844455
0.3053621677768805
0.3419766896095151
0.3332905873017218
0.3242438676558422
0.3331218250755578
0.3058916071565648
0.3183475993896462
0.3192228427714389
0.30550624264962495
0.28511225939376106
0.2856057010052155
0.2857416303322548
0.2853207507903199
0.31848301018326275
0.30542763965346825
0.3053956671020967
0.3183070956096556
0.32447170075429377
0.33407676331240554
0.34207228219222724
0.33340416363912107
0.30548862412637406
0.30590373216496247
0.3183081757136236
0.31917851805809455
0.3332902591622774
0.324375866803956
0.33400481758133127
0.3419858764193358
0.27681477976734353
0.2766837374855588
0.27642058151283405
0.2765049885058575
0.2723858167391246
0.2995097429571052
0.2988368635170444
0.2985145406059479
0.2992355233014548
0.27235269552631697
0.2723091613268051
0.2724344012075505
0.2994828303768133
0.2994531434958635
0.2992284041049219
0.29845621764889196
0.2713462619569068
0.2710300683516047
0.2743891981229128
0.2742235161247755
0.2816759583148087
0.27027089357310063
0.2816104240175843
0.2703361944043639
0.2833330819832162
0.2954808332454763
0.2959041416140943
0.28354041931796625
0.2832429207446511
0.29510149675253566
0.28314386359999266
0.29503019606583475
0.2706805943788765
0.2873571467323024
0.27087548318636046
0.28712051138047867
0.27729031251853964
0.2714055133602456
0.27719379715884934
0.27134025479310425
0.2723444072625882
0.27185479816606634
0.27917365179717146
0.2799730671055359
0.29822768425288815
0.29818816095864914
0.3087104210693663
0.30812550198336564
0.299463222018883
0.2998781470326643
0.3083324634258195
0.30848246663824463
0.3083677345438246
0.30824542224005536
0.2998278532649734
0.2996666384432226
0.3084924743904769
0.3080129750998239
0.27247889316320223
0.284510176218216
0.27221155246479906
0.28446778496617126
0.28255771771879723
0.2728077542252742
0.2843247320968609
0.27361177980976126
0.2846460746695523
0.28595114479087036
0.2724206422120405
0.28576910966207403
0.27355742538070843
0.28581914355775634
0.2857873153502996
0.2857097372723412
0.30441577186042024
0.30262305662613537
0.27216017870858794
0.27332130463282334
0.27400237675369876
0.2734643554038887
0.2732473116411144
0.27407160711480816
0.28735095169983776
0.2880986111910592
0.27360896182236205
0.284780899550181
0.28630406784817847
0.286284404146987
0.2731140565727986
0.2863158946010797
0.2751008068463631
0.27072857468998685
0.2768522015101594
0.27474611717969
0.27388124103979916
0.2775530549317759
0.2782869047476947
0.2781365693703573
0.27038576421329125
0.2704914785540605
0.27969877660003356
0.2730801431123101
0.2883072330142582
0.2704093788340436
0.2882542525477456
0.2847077298075231
0.28463428624953685
0.27201582555390874
0.27194616511635233
0.27293846613554973
0.2706122762682554
0.29267934429555037
0.27530370581001884
0.2926302170998758
0.2858331555989373
0.2707921124512274
0.2932991419455903
0.27119916692189855
0.2888542416213632
0.27561083495941674
0.27943113989401336
0.28905720105967697
0.28870080633907785
0.2770874182714831
0.30813099628180146
0.2926944249449412
0.30744605894043536
0.3079160786008114
0.2914340758692487
0.3079126531419193
0.27694892054314596
0.27074102631769076
0.2909485891458083
0.2963170187594541
0.29551450042893673
0.29577993037208256
0.29619394611323896
0.29568306415569784
0.27911752015011837
0.27140081320752035
0.2790614882293108
0.2709279140389225
0.2976936445592455
0.2977642553053704
0.2917915684454621
0.29361551004414077
0.274416966400338
0.27782900642816505
0.2863224934892748
0.28985718952320716
0.29043795624751645
0.27240116286788535
0.27130396344001145
0.28607219861731625
0.2749745433535124
0.2863266228725285
0.27116611509441285
0.2782732705883305
0.2744780178197867
0.27618033723001567
0.2712845836407273
0.2771354219966355
0.27066500160209067
0.27986524668897494
0.2791347225086029
0.27626013000595323
0.27283038550129357
0.27218571148529747
0.2725397662241822
0.29038067839601217
0.2903544473422187
0.27646645369717554
0.2745699793439565
0.2713284495818507
0.2722747052855304
0.27594938400752217
0.2889954731437063
0.28900452665766047
0.27828237123954813
0.2791561387989545
0.2731586974046156
0.31730026485834917
0.319854368810757
0.30711008432574116
0.3118019175156609
0.3080922480627025
0.317340396678462
0.3198656644438227
0.30760096735745407
0.31195011352148627
0.3080922337427351
0.31713636841879667
0.3195883869111149
0.30680331612520967
0.30937819642681763
0.3161858155647441
0.3197761751111932
0.30757874296355614
0.31196447996788496
0.30823516524267125
0.31665911607423475
0.32033065141684
0.31078242765545855
0.3115548946327074
0.3089663859889519
0.3010245290331661
0.3043169354313304
0.31717746988421835
0.3195861363430421
0.3068354090627566
0.30937564162728465
0.31636766089017726
0.3196932993129631
0.30752315254943746
0.31189772388348364
0.3081743522247047
0.3162772140654891
0.3201660328168157
0.31071909586890234
0.3115031391994005
0.308924243546992
0.3009748172104642
0.3042596342074482
0.27133604657827537
0.27785905298417996
0.27884002683975034
0.30327252409646444
0.3032400751431786
0.3042705908061043
0.3045028593256899
0.29186921283010603
0.29343312750513856
0.2785399075804618
0.2707115414221913
0.2773319576567457
0.30043425160122444
0.3012486668362877
0.3004030877298499
0.3003724669519538
0.2728889529755758
0.3008840985430231
0.30012656494250356
0.3002038962397571
0.3009198971828362
0.2729992721761096
0.28123920657522766
0.3011990496878549
0.3004510785636437
0.2918335309626976
0.29206662421501933
0.29075060007748726
0.2705538724491354
0.27137626872257264
0.30284702582773404
0.30237046882100915
0.30229022463633515
0.3022515082370797
0.2741985454064953
0.27146464420476807
0.27363816541220376
0.2804438525587484
0.2781880780500407
0.28127957809066345
0.30671471565535297
0.3196739720202452
0.32116307447465275
0.3066603370114313
0.31961403433800584
0.3210741989136918
0.2977891547576404
0.29504244587845985
0.29421786440527986
0.2942786785043735
0.27936360411527217
0.27451002057005464
0.2772073080374002
0.29056403145507875
0.29009260543448384
0.27084370428312876
0.28112480776646337
0.2814767771408908
0.30244007503912784
0.302549473637449
0.3025024810663475
0.3030644142613275
0.3029023475320778
0.28137628677943394
0.2753873051166354
0.2843273855141049
0.2808132990460763
0.27413269803417994
0.2731833646902136
0.2774837534347046
0.2716852870160994
0.2912944190278435
0.2912356057776262
0.283048580130392
0.28909428686222083
0.2890931080693303
0.27562135481856026
0.2712442890553539
0.27264630392180644
0.27610410717919326
0.27299431475127306
0.2706700766861352
0.2721145711522335
0.29074369255182964
0.2920134866670209
0.290475720018788
0.2920056702657055
0.2917669856250307
0.27200178308948664
0.27105493735201125
0.2814908313796503
0.2987797657872805
</DataArray>
<DataArray type="Float64" Name="Imag part" format="ascii">
0.0
0.0
0.0
0.0
0.0
0.0
0.0
0.0
0.0
0.0
0.0
0.0
0.0
0.0
0.0
0.0
0.0
0.0
0.0
0.0
0.0
0.0
0.0
0.0
0.0
0.0
0.0
0.0
0.0
0.0
0.0
0.0
0.0
0.0
0.0
0.0
0.0
0.0
0.0
0.0
0.0
0.0
0.0
0.0
0.0
0.0
0.0
0.0
0.0
0.0
0.0
0.0
0.0
0.0
0.0
0.0
0.0
0.0
0.0
0.0
0.0
0.0
0.0
0.0
0.0
0.0
0.0
0.0
0.0
0.0
0.0
0.0
0.0
0.0
0.0
0.0
0.0
0.0
0.0
0.0
0.0
0.0
0.0
0.0
0.0
0.0
0.0
0.0
0.0
0.0
0.0
0.0
0.0
0.0
0.0
0.0
0.0
0.0
0.0
0.0
0.0
0.0
0.0
0.0
0.0
0.0
0.0
0.0
0.0
0.0
0.0
0.0
0.0
0.0
0.0
0.0
0.0
0.0
0.0
0.0
0.0
0.0
0.0
0.0
0.0
0.0
0.0
0.0
0.0
0.0
0.0
0.0
0.0
0.0
0.0
0.0
0.0
0.0
0.0
0.0
0.0
0.0
0.0
0.0
0.0
0.0
0.0
0.0
0.0
0.0
0.0
0.0
0.0
0.0
0.0
0.0
0.0
0.0
0.0
0.0
0.0
0.0
0.0
0.0
0.0
0.0
0.0
0.0
0.0
0.0
0.0
0.0
0.0
0.0
0.0
0.0
0.0
0.0
0.0
0.0
0.0
0.0
0.0
0.0
0.0
0.0
0.0
0.0
0.0
0.0
0.0
0.0
0.0
0.0
0.0
0.0
0.0
0.0
0.0
0.0
0.0
0.0
0.0
0.0
0.0
0.0
0.0
0.0
0.0
0.0
0.0
0.0
0.0
0.0
0.0
0.0
0.0
0.0
0.0
0.0
0.0
0.0
0.0
0.0
0.0
0.0
0.0
0.0
0.0
0.0
0.0
0.0
0.0
0.0
0.0
0.0
0.0
0.0
0.0
0.0
0.0
0.0
0.0
0.0
0.0
0.0
0.0
0.0
0.0
0.0
0.0
0.0
0.0
0.0
0.0
0.0
0.0
0.0
0.0
0.0
0.0
0.0
0.0
0.0
0.0
0.0
0.0
0.0
0.0
0.0
0.0
0.0
0.0
0.0
0.0
0.0
0.0
0.0
0.0
0.0
0.0
0.0
0.0
0.0
0.0
0.0
0.0
0.0
0.0
0.0
0.0
0.0
0.0
0.0
0.0
0.0
0.0
0.0
0.0
0.0
0.0
0.0
0.0
0.0
0.0
0.0
0.0
0.0
0.0
0.0
0.0
0.0
0.0
0.0
0.0
0.0
0.0
0.0
0.0
0.0
0.0
0.0
0.0
0.0
0.0
0.0
0.0
0.0
0.0
0.0
0.0
0.0
0.0
0.0
0.0
0.0
0.0
0.0
0.0
0.0
0.0
0.0
0.0
0.0
0.0
0.0
0.0
0.0
0.0
0.0
0.0
0.0
0.0
0.0
0.0
0.0
0.0
0.0
0.0
0.0
0.0
0.0
0.0
0.0
0.0
0.0
0.0
0.0
0.0
0.0
0.0
0.0
0.0
0.0
0.0
0.0
0.0
0.0
0.0
0.0
0.0
0.0
0.0
0.0
0.0
0.0
0.0
0.0
0.0
0.0
0.0
</DataArray>
</PointData>
</Piece>
</UnstructuredGrid>
</VTKFile>
