<VTKFile type="UnstructuredGrid" version="1.0" byte_order="LittleEndian" header_type="UInt64">
<UnstructuredGrid>
<Piece NumberOfPoints="391" NumberOfCells="722">
<Points>
<DataArray NumberOfComponents="3" type="Float64">
0.0 0.0 0.0
1.0 0.0 0.0
1.0 1.0 0.0
0.0 1.0 0.0
0.2 0.25 0.0
0.15 0.2 0.0
0.2 0.15 0.0
0.25 0.2 0.0
0.2 0.55 0.0
0.15 0.5 0.0
0.2 0.45 0.0
0.25 0.5 0.0
0.2 0.8500000000000001 0.0
0.15 0.8 0.0
0.2 0.75 0.0
0.25 0.8 0.0
0.5 0.25 0.0
0.45 0.2 0.0
0.5 0.15 0.0
0.55 0.2 0.0
0.5 0.55 0.0
0.45 0.5 0.0
0.5 0.45 0.0
0.55 0.5 0.0
0.5 0.8500000000000001 0.0
0.45 0.8 0.0
0.5 0.75 0.0
0.55 0.8 0.0
0.8 0.25 0.0
0.75 0.2 0.0
0.8 0.15 0.0
0.8500000000000001 0.2 0.0
0.8 0.55 0.0
0.75 0.5 0.0
0.8 0.45 0.0
0.8500000000000001 0.5 0.0
0.8 0.8500000000000001 0.0
0.75 0.8 0.0
0.8 0.75 0.0
0.8500000000000001 0.8 0.0
0.1646446608745421 0.2353553389931969 0.0
0.1646446610068031 0.1646446608745421 0.0
0.2353553391254579 0.1646446610068031 0.0
0.2353553389931969 0.2353553391254579 0.0
0.1646446608952583 0.5353553390139131 0.0
0.1646446610022432 0.464644660879102 0.0
0.2353553391069078 0.4646446609882531 0.0
0.2353553389885012 0.5353553391301535 0.0
0.1646446608952583 0.8353553390139131 0.0
0.1646446610114987 0.7646446608698465 0.0
0.2353553391047417 0.764644660986087 0.0
0.2353553389885012 0.8353553391301536 0.0
0.464644660879102 0.2353553389977568 0.0
0.4646446609882531 0.1646446608930921 0.0
0.5353553391301535 0.1646446610114987 0.0
0.5353553390139131 0.2353553391047417 0.0
0.4646446609191431 0.5353553390377979 0.0
0.4646446610370135 0.4646446608443318 0.0
0.5353553391259621 0.4646446610073074 0.0
0.5353553390335396 0.5353553390851152 0.0
0.4646446609191431 0.8353553390377979 0.0
0.4646446610073074 0.7646446608740379 0.0
0.5353553390851152 0.7646446609664604 0.0
0.5353553390335396 0.8353553390851153 0.0
0.7646446608698465 0.2353553389885012 0.0
0.764644660986087 0.1646446608952583 0.0
0.8353553391301536 0.1646446610114987 0.0
0.8353553390139131 0.2353553391047417 0.0
0.7646446609148848 0.5353553390335396 0.0
0.7646446609622022 0.4646446609191431 0.0
0.8353553391259622 0.4646446610073074 0.0
0.8353553390335396 0.5353553390851152 0.0
0.7646446609148848 0.8353553390335396 0.0
0.7646446609664604 0.7646446609148848 0.0
0.8353553390851153 0.7646446609664604 0.0
0.8353553390335396 0.8353553390851153 0.0
0.3499999999999999 0.3500000000000001 0.0
0.3499999999999999 0.6499999999999999 0.0
0.6473644356934427 0.3496269852619729 0.0
0.6500000000000001 0.6500000000000001 0.0
0.4583333333333333 0.35 0.0
0.2399686363257433 0.3481967129171821 0.0
0.35 0.2416666666666667 0.0
0.65 0.2416666666666666 0.0
0.2404874314211836 0.650741365668503 0.0
0.35 0.4583333333333335 0.0
0.4583333333333333 0.65 0.0
0.6500000000000001 0.4583333333333332 0.0
0.7600404954876467 0.3481303969746916 0.0
0.3481303969594854 0.7600404954743835 0.0
0.6506316090218678 0.7594757579349837 0.0
0.7583333333333337 0.6500000000000001 0.0
0.5543875290826419 0.364952736934346 0.0
0.6281515197999076 0.5571401543071522 0.0
0.5495039109432027 0.6669937706276886 0.0
0.3350472630653402 0.5543875290826964 0.0
0.5871004361234672 0.2963517508531116 0.0
0.4035248943255086 0.5870572319767361 0.0
0.7036482491495735 0.5871004361230706 0.0
0.4095853735080316 0.4107348383763576 0.0
0.4107361241909442 0.2899333179423651 0.0
0.2898513226671833 0.2898513226671834 0.0
0.7103795933912478 0.2885560492200747 0.0
0.2888539851584965 0.4092296864358319 0.0
0.4111568569497845 0.7104177576306473 0.0
0.2903282422582339 0.7094766447639707 0.0
0.7097402587865804 0.409667998509507 0.0
0.7093807814244849 0.7096637690535222 0.0
0.5757576639895366 0.5934450408933405 0.0
0.2742893992970423 0.5907080254298438 0.0
0.590708025429277 0.4257106007035643 0.0
0.5888462273653916 0.7249675886220239 0.0
0.5174013060282349 0.3173311452075257 0.0
0.3826688547938008 0.517401306027756 0.0
0.6826688547935644 0.5174013060278413 0.0
0.5093520464007314 0.6202292086916971 0.0
0.4981159893048188 0.3940710066319345 0.0
0.6091203914685013 0.4955611555134115 0.0
0.4956123216120071 0.6915761389978341 0.0
0.3059289933641749 0.4981159893040006 0.0
0.5926842712831094 0.2383910822538711 0.0
0.7616089177718327 0.592684271293819 0.0
0.2939296111843356 0.2330259100882316 0.0
0.2336235457141617 0.2962748528684185 0.0
0.4077924756104265 0.2350818557462883 0.0
0.2339025950440469 0.4087203824379081 0.0
0.7054964172299596 0.2340247346852367 0.0
0.2332681143576917 0.7059807350395039 0.0
0.7659752653147632 0.2945035827700398 0.0
0.2945035827700396 0.7659752653147628 0.0
0.4087203824384579 0.7660974049547324 0.0
0.7656126969255255 0.4087892044599588 0.0
0.7058535849563642 0.7668337446242723 0.0
0.7663764542832314 0.7037251471365775 0.0
0.4601106386936329 0.5919575462900033 0.0
0.2958333333333333 0.6411821829852107 0.0
0.6425616008642866 0.4045330308137873 0.0
0.6411821829776574 0.7041666666666667 0.0
0.4651121924429275 0.2953668504047845 0.0
0.4077563014273691 0.4649729498043391 0.0
0.7108938123935116 0.4647993644000941 0.0
0.4041666666666665 0.3440179893338497 0.0
0.3546650663412003 0.2968115602914644 0.0
0.2958333333333332 0.3440179893338502 0.0
0.3559820106661498 0.4041666666666668 0.0
0.6559820106661495 0.2958333333333333 0.0
0.4035437496341041 0.6556997188567408 0.0
0.7055427304470067 0.3471465878541564 0.0
0.3459829601453839 0.7044806425898797 0.0
0.7041666666666669 0.6559820106661493 0.0
0.2217337876550237 0.5947326986425647 0.0
0.5965254491793786 0.7737183722116945 0.0
0.5988322727896861 0.6427584683324709 0.0
0.6121796062763101 0.352831695664283 0.0
0.3471061352132355 0.6126188669941947 0.0
0.6526336219212916 0.6034917091381211 0.0
0.5802931724945697 0.5468527409798054 0.0
0.5420562356766421 0.4224338777559339 0.0
0.2770651716934388 0.5488869812660174 0.0
0.5512732134561602 0.7255112098803835 0.0
0.4581286225401086 0.4184081079166122 0.0
0.4568963712891623 0.7144204221759496 0.0
0.2815818040530865 0.4580511855102498 0.0
0.5458417321113019 0.2804392337367444 0.0
0.4195607662746288 0.5458417321074579 0.0
0.7195607662726011 0.5458417321081434 0.0
0.557515083410674 0.3278628115591709 0.0
0.372119566325405 0.5575089113890873 0.0
0.6816505670643564 0.5563292969151861 0.0
0.5782628818834021 0.469453908155296 0.0
0.53399145300716 0.5799768497434583 0.0
0.6778189550147194 0.3823297223180971 0.0
0.3193307280250514 0.3794794053578681 0.0
0.6031916925963016 0.6850593319137792 0.0
0.6152952653512643 0.591209821795225 0.0
0.6073381182080475 0.3928418132212159 0.0
0.308035105332692 0.6066455306249985 0.0
0.5188378951583367 0.6572432682506582 0.0
0.6227879634833712 0.2720855369568323 0.0
0.429700569064446 0.6213403899621088 0.0
0.7279144630431417 0.6227879634831336 0.0
0.3134488757566931 0.6735082221751993 0.0
0.6734977137673033 0.6865499687462943 0.0
0.4975966715703078 0.3555718576784697 0.0
0.645525065217329 0.4987375169206325 0.0
0.3444281423195975 0.4975966715687496 0.0
0.5581218400959111 0.6300991360607873 0.0
0.2733388455843804 0.6725484598705898 0.0
0.6721026558922277 0.4289342995119527 0.0
0.6725120528333264 0.7266821724045224 0.0
0.3199859812942599 0.3131420673639835 0.0
0.4277957927430196 0.374236772038146 0.0
0.3253561663447778 0.2723420063769271 0.0
0.3864288182737801 0.3818208185265429 0.0
0.2719867592655735 0.3730328830954735 0.0
0.3263740953720379 0.4264593924975556 0.0
0.3798287820100137 0.6871339092923172 0.0
0.3727683006350324 0.7288288702270883 0.0
0.7277202940534286 0.3736809353014865 0.0
0.4387648948853521 0.6828926709407204 0.0
0.2671606514449669 0.2571445108356198 0.0
0.4314013444324217 0.258113535650664 0.0
0.7418661398050755 0.268731737101184 0.0
0.2572559293287268 0.7326262989653355 0.0
0.7373179166358044 0.4370124034079058 0.0
0.7324985765604758 0.7427494920323041 0.0
0.4363752609421772 0.3182159251115838 0.0
0.3817840748884159 0.4363752609421775 0.0
0.3836969940900222 0.2625331786118325 0.0
0.2641424860352013 0.3186306883467298 0.0
0.6811404121496059 0.2659726027584425 0.0
0.7330136538025631 0.3161689413208582 0.0
0.3186306883467292 0.7358575139647991 0.0
0.735142254190467 0.6808169136528346 0.0
0.6227274273322422 0.3150695004698646 0.0
0.3849304995316143 0.6227274273313508 0.0
0.6848450300225657 0.6228530669982835 0.0
0.6135189012351407 0.4544448152399559 0.0
0.2433956689478596 0.5710690127919743 0.0
0.5706540787777861 0.7566824743053322 0.0
0.2609546315102656 0.4304453326073575 0.0
0.4296775295763778 0.7445569309503 0.0
0.4349261530926503 0.442520127187254 0.0
0.3739959845115797 0.3254054197389858 0.0
0.6854614160240172 0.3145385839759827 0.0
0.2685004784059217 0.6276089653379894 0.0
0.6243810588594206 0.7347027911402586 0.0
0.6276599636114613 0.6234587701321431 0.0
0.4768864882821318 0.6207884039708569 0.0
0.5009486165128977 0.2844933278929815 0.0
0.4159508543015735 0.5009311154941426 0.0
0.7164010525078831 0.50090392679795 0.0
0.4656902553472885 0.3886758455029358 0.0
0.3114099801205898 0.4654882785963949 0.0
0.4923625899774758 0.586593853656277 0.0
0.4792486220862865 0.3231446111213306 0.0
0.3768553888786692 0.4792486220862862 0.0
0.6826033652105242 0.4723296404325017 0.0
0.5671218921311638 0.4003939192333217 0.0
0.3041246296048341 0.5698745953088764 0.0
0.5675942382915344 0.6927211264531756 0.0
0.5776182081774853 0.5140966147196722 0.0
0.5310404634163444 0.34661667228055 0.0
0.3533824102829797 0.5310401420906734 0.0
0.6522270038082836 0.5349978372892435 0.0
0.5751875545928478 0.2641232307793983 0.0
0.7358767692356145 0.575187554598797 0.0
0.4673122050858198 0.6789739314584686 0.0
0.562557137736954 0.4406740491267765 0.0
0.6085444971441977 0.5318419919306588 0.0
0.4370308789404246 0.574532141321551 0.0
0.5110976285887318 0.4206597222222224 0.0
0.2755320391828024 0.5161304005913072 0.0
0.5161108279979969 0.7244815464631671 0.0
0.6321074702013894 0.6748883283122041 0.0
0.3228846899271908 0.6367909605559205 0.0
0.6374525432113614 0.3764326494558712 0.0
0.2647524459691664 0.2268213413882081 0.0
0.2877985123322225 0.196677608265813 0.0
0.325154570442495 0.223015056333908 0.0
0.3501130004798096 0.2021971215525696 0.0
[...]
<PointData Scalars="solution">
<DataArray type="Float64" Name="Real part" format="ascii">
0.5692952757215752
0.5692959851789466
0.5692250441512613
0.5692177413638303
0.5283345080091444
0.5355612128390385
0.5355470968139875
0.5284530511484659
0.514236471591392
0.5165919673782955
0.5163521450980149
0.5032400698402391
0.5354837946266859
0.5354445226063227
0.5282752150922908
0.5282443679053702
0.5030679756451458
0.5162420061451732
0.5166068041876979
0.5168266558151962
0.49032823732543107
0.49076948868778036
0.4911021234391849
0.4906575329848069
0.5165543201815114
0.5162924961923827
0.5032828109556885
0.5141750060477434
0.528471200658209
0.5287810244099606
0.5355800855621011
0.5355466148493706
0.5167906594913265
0.5031119073473636
0.5162200681383846
0.5165689697227909
0.535449049387812
0.5282932374773908
0.5286922707826907
0.5355100474784653
0.5311506596353819
0.5393472910331122
0.5313577377709313
0.5239997332784757
0.517091733050897
0.5172742343214031
0.50735134306148
0.5071136081610842
0.5392586294011829
0.5312413165101011
0.52386470195454
0.5310752819580036
0.5076746914532259
0.5170902808196297
0.5179517783813686
0.5072805728562007
0.4899191692454577
0.4904028005805993
0.4905392641217265
0.4901264996277899
0.5172295978404912
0.507202962411432
0.507154771576332
0.5170585758601624
0.5240691775557653
0.5320290728982953
0.5393557862197373
0.5313549160394765
0.5072674119402709
0.5076875213025386
0.5170532992061965
0.5179106222609081
0.5312430214267875
0.5239874008972548
0.5319618957309117
0.5392733244912348
0.4797682920641991
0.479644319782242
0.4794202137017792
0.4794810897034148
0.47638302690084394
0.5001273836635344
0.49952022017373343
0.4991951133116982
0.4998799496965538
0.4763487515494582
0.4763080350895944
0.47643357977942974
0.5001043129304799
0.5000757652063332
0.4998781927117488
0.49914177236809254
0.4754826082885578
0.47523867928518815
0.4780866143551063
0.4779194117856533
0.4843810283416035
0.4746127203939432
0.48431889012488877
0.4747048222976193
0.48586270518984154
0.4964575618184661
0.4968503476402907
0.4860219126180774
0.48576742655175553
0.49610477324224966
0.4856715828223868
0.4960357833803202
0.47512729230546163
0.48949110704711085
0.4753480612357506
0.48928935160851905
0.4808568342936746
0.47586550422334545
0.4807661938028901
0.4757881955739291
0.476908280526797
0.4764025866270354
0.4826101267276075
0.4833494616652833
0.49932740007332066
0.4992921973820917
0.5086602227253407
0.508103643973176
0.5004391759192415
0.5008150088957702
0.5082957353660783
0.5084492487057877
0.5083406749437626
0.5082244359640302
0.5007701777953292
0.5006272032748242
0.5084574461747856
0.507990724359842
0.47709000895099035
0.4866018532888173
0.47595277689291887
0.4865629669387926
0.48563732620026795
0.47742522509043
0.4872885541697422
0.47714221708230126
0.48670746598081255
0.4878488273088556
0.47612856174723034
0.4876744105901245
0.47708675526835714
0.48773408243120064
0.4877080154802868
0.4876207053921909
0.5049262713495397
0.5032788813652519
0.4758793840642747
0.4768232611121792
0.4774073443524752
0.4769797592998162
0.47791337679424173
0.4787578586500386
0.489944149709788
0.49061212820267275
0.47827200373800405
0.4876204065932616
0.4890539618440443
0.48900354730291196
0.4777912876637667
0.4890402421901325
0.4786737642746084
0.47494803834119614
0.48026058996392507
0.4794687960696985
0.4785993564881625
0.4804854282963034
0.48112240861177646
0.48108287088827095
0.47451745827831343
0.47455499740101176
0.4824599703491338
0.47705135582865466
0.49007776860507424
0.47463652447560817
0.4900294949484184
0.48670199397145913
0.48663219125108453
0.4761853777226119
0.47610738581043505
0.4769549951579772
0.4748193953182495
0.49389851929797923
0.47878012192510455
0.49385183195128285
0.48771345266699184
0.47494078127804085
0.4944639146082274
0.47506851511794557
0.49056165954348196
0.47903216800600656
0.482141676459645
0.49074451305626154
0.490428538680257
0.4804285200382955
0.5082473761914739
0.49460694676789035
0.5075894965056644
0.5080456766401499
0.4935448892560211
0.5080388636593381
0.4802985431687923
0.4750220211020848
0.4925151833616609
0.49720990366561824
0.4964566056060562
0.49670927800298753
0.4970949435885627
0.49660963847358863
0.4818489585738593
0.4752073644143521
0.4817973991525792
0.47535273807373024
0.49915940307557866
0.49923774369769447
0.4937693248330814
0.49543751724946683
0.4791098699510614
0.48070369718887473
0.4881463151820859
0.49146692331084557
0.492007143651567
0.4760374219057382
0.475721482970452
0.4890840837048631
0.4796890049813898
0.48932402729823465
0.4756501132292666
0.48166516668041665
0.4791791063228789
0.47983128508286366
0.47567945164273356
0.4806762342415674
0.4751149438963956
0.4828807785445983
0.48223681052345985
0.48099872894810697
0.47681738067285656
0.4762636669390183
0.4765402975065581
0.492400181519539
0.49237825526463713
0.48003411515546546
0.47926577107501084
0.47585064755235473
0.4769171339356668
0.4806773479339377
0.49180813856651906
0.49182204545865654
0.4810811364429286
0.4818434576109524
0.4766634367204582
0.5168902202021834
0.5189089839613414
0.5070710362947508
0.5113417012926187
0.5082374491996206
0.5169261179346708
0.518919806966251
0.5075204128693557
0.5114750626253923
0.508234186933205
0.5167363150595496
0.5186561270293719
0.5067982515220666
0.5091096077073582
0.5158268812356817
0.5188291575656345
0.5074972749645438
0.5114869402173784
0.5083628330804638
0.5162703751989327
0.519459937992699
0.510368371167746
0.5111407431043903
0.5091671413362622
0.5015818578496912
0.5052826503319128
0.5167741515229352
0.5186547980484675
0.5068280601518869
0.50910696144667
0.5160014102901002
0.5187519706220487
0.5074467990609349
0.5114252979686389
0.5083064431242361
0.5159092363123631
0.5193045251607437
0.5103100300167194
0.5110931872610646
0.509129042483408
0.5015366333303809
0.5052288479434135
0.47582375401225974
0.48131334732476044
0.48221513772176827
0.5043369752334904
0.5043087265923709
0.505212190339395
0.5054219341034032
0.494413034416314
0.4959569285035714
0.48330210132004653
0.4748747439882275
0.48208321020946643
0.5010818275276295
0.5018297653620234
0.5010540712767484
0.501027091578605
0.476901674030732
0.5013860451475532
0.5007256677137389
0.5007998198532253
0.5014182337344774
0.4776574655807232
0.48421254887063164
0.501673332521062
0.5010310079405728
0.4934546900334132
0.4936721405920217
0.4924912788869888
0.4746435258237769
0.47568752971400075
0.503262870636184
0.5028108914721999
0.50274420132639
0.5027024566136243
0.477757932064898
0.47540164748572994
0.477246575679593
0.48294593016232373
0.4811696316757101
0.48367094631568036
0.5066461041859212
0.5184783409259692
0.5200238233835659
0.506596241477873
0.5184227015121774
0.5199408456380792
0.4987074444462066
0.49636609315324054
0.49674721765640373
0.49680970833998606
0.4841343181921866
0.47782038061025317
0.48195455820871036
0.49332468180174033
0.4928589079439421
0.4753135469243125
0.48353704097252687
0.4838425889588299
0.5028081092677102
0.5029072900668836
0.5028648707309165
0.5033451077070155
0.5031953470030744
0.4837636625035621
0.47856984695283233
0.48703221819878
0.48327255764130655
0.47749379649447915
0.476926015190522
0.4805915269272948
0.47620166570174105
0.49267101054828194
0.4926177509441895
0.48539720256288527
0.49064767747768406
0.490642457570283
0.4789409113593816
0.4751743702757178
0.47644671334158156
0.4793791658360666
0.4767795289370296
0.4747627873304334
0.4760229360495399
0.49220439661729537
0.4933249342247976
0.4919012140284499
0.493322689913862
0.4930988492404563
0.47593226933163874
0.4755290880359246
0.4844080635427187
0.499586601652237
</DataArray>
<DataArray type="Float64" Name="Imag part" format="ascii">
0.0
0.0
0.0
0.0
0.0
0.0
0.0
0.0
0.0
0.0
0.0
0.0
0.0
0.0
0.0
0.0
0.0
0.0
0.0
0.0
0.0
0.0
0.0
0.0
0.0
0.0
0.0
0.0
0.0
0.0
0.0
0.0
0.0
0.0
0.0
0.0
0.0
0.0
0.0
0.0
0.0
0.0
0.0
0.0
0.0
0.0
0.0
0.0
0.0
0.0
0.0
0.0
0.0
0.0
0.0
0.0
0.0
0.0
0.0
0.0
0.0
0.0
0.0
0.0
0.0
0.0
0.0
0.0
0.0
0.0
0.0
0.0
0.0
0.0
0.0
0.0
0.0
0.0
0.0
0.0
0.0
0.0
0.0
0.0
0.0
0.0
0.0
0.0
0.0
0.0
0.0
0.0
0.0
0.0
0.0
0.0
0.0
0.0
0.0
0.0
0.0
0.0
0.0
0.0
0.0
0.0
0.0
0.0
0.0
0.0
0.0
0.0
0.0
0.0
0.0
0.0
0.0
0.0
0.0
0.0
0.0
0.0
0.0
0.0
0.0
0.0
0.0
0.0
0.0
0.0
0.0
0.0
0.0
0.0
0.0
0.0
0.0
0.0
0.0
0.0
0.0
0.0
0.0
0.0
0.0
0.0
0.0
0.0
0.0
0.0
0.0
0.0
0.0
0.0
0.0
0.0
0.0
0.0
0.0
0.0
0.0
0.0
0.0
0.0
0.0
0.0
0.0
0.0
0.0
0.0
0.0
0.0
0.0
0.0
0.0
0.0
0.0
0.0
0.0
0.0
0.0
0.0
0.0
0.0
0.0
0.0
0.0
0.0
0.0
0.0
0.0
0.0
0.0
0.0
0.0
0.0
0.0
0.0
0.0
0.0
0.0
0.0
0.0
0.0
0.0
0.0
0.0
0.0
0.0
0.0
0.0
0.0
0.0
0.0
0.0
0.0
0.0
0.0
0.0
0.0
0.0
0.0
0.0
0.0
0.0
0.0
0.0
0.0
0.0
0.0
0.0
0.0
0.0
0.0
0.0
0.0
0.0
0.0
0.0
0.0
0.0
0.0
0.0
0.0
0.0
0.0
0.0
0.0
0.0
0.0
0.0
0.0
0.0
0.0
0.0
0.0
0.0
0.0
0.0
0.0
0.0
0.0
0.0
0.0
0.0
0.0
0.0
0.0
0.0
0.0
0.0
0.0
0.0
0.0
0.0
0.0
0.0
0.0
0.0
0.0
0.0
0.0
0.0
0.0
0.0
0.0
0.0
0.0
0.0
0.0
0.0
0.0
0.0
0.0
0.0
0.0
0.0
0.0
0.0
0.0
0.0
0.0
0.0
0.0
0.0
0.0
0.0
0.0
0.0
0.0
0.0
0.0
0.0
0.0
0.0
0.0
0.0
0.0
0.0
0.0
0.0
0.0
0.0
0.0
0.0
0.0
0.0
0.0
0.0
0.0
0.0
0.0
0.0
0.0
0.0
0.0
0.0
0.0
0.0
0.0
0.0
0.0
0.0
0.0
0.0
0.0
0.0
0.0
0.0
0.0
0.0
0.0
0.0
0.0
0.0
0.0
0.0
0.0
0.0
0.0
0.0
0.0
0.0
0.0
0.0
0.0
0.0
0.0
0.0
0.0
0.0
0.0
0.0
0.0
0.0
0.0
0.0
0.0
0.0
0.0
0.0
0.0
0.0
0.0
0.0
0.0
0.0
0.0
0.0
0.0
0.0
</DataArray>
</PointData>
</Piece>
</UnstructuredGrid>
</VTKFile>
