<VTKFile type="UnstructuredGrid" version="1.0" byte_order="LittleEndian" header_type="UInt64">
<UnstructuredGrid>
<Piece NumberOfPoints="388" NumberOfCells="716">
<Points>
<DataArray NumberOfComponents="3" type="Float64">
0.0 0.0 0.0
1.0 0.0 0.0
1.0 1.0 0.0
0.0 1.0 0.0
0.2 0.25 0.0
0.15 0.2 0.0
0.2 0.15 0.0
0.25 0.2 0.0
0.2 0.55 0.0
0.15 0.5 0.0
0.2 0.45 0.0
0.25 0.5 0.0
0.2 0.8500000000000001 0.0
0.15 0.8 0.0
0.2 0.75 0.0
0.25 0.8 0.0
0.5 0.25 0.0
0.45 0.2 0.0
0.5 0.15 0.0
0.55 0.2 0.0
0.5 0.55 0.0
0.45 0.5 0.0
0.5 0.45 0.0
0.55 0.5 0.0
0.5 0.8500000000000001 0.0
0.45 0.8 0.0
0.5 0.75 0.0
0.55 0.8 0.0
0.8 0.25 0.0
0.75 0.2 0.0
0.8 0.15 0.0
0.8500000000000001 0.2 0.0
0.8 0.55 0.0
0.75 0.5 0.0
0.8 0.45 0.0
0.8500000000000001 0.5 0.0
0.8 0.8500000000000001 0.0
0.75 0.8 0.0
0.8 0.75 0.0
0.8500000000000001 0.8 0.0
0.1646446608727939 0.2353553389914487 0.0
0.1646446610085514 0.1646446608727939 0.0
0.2353553391272061 0.1646446610085514 0.0
0.2353553389914487 0.2353553391272061 0.0
0.1646446608926911 0.5353553390113459 0.0
0.1646446610424293 0.464644660838916 0.0
0.2353553391217903 0.4646446610031355 0.0
0.2353553389872768 0.5353553391313779 0.0
0.1646446608926911 0.835355339011346 0.0
0.1646446610127232 0.7646446608686222 0.0
0.2353553391073089 0.7646446609886541 0.0
0.464644660838916 0.2353553389575707 0.0
0.4646446610031355 0.1646446608782098 0.0
0.5353553391313779 0.1646446610127232 0.0
0.5353553390113459 0.2353553391073089 0.0
0.4646446609191431 0.5353553390377979 0.0
0.4646446610370135 0.4646446608443318 0.0
0.5353553391259621 0.4646446610073074 0.0
0.5353553390335396 0.5353553390851152 0.0
0.4646446609191431 0.8353553390377979 0.0
0.4646446610073074 0.7646446608740379 0.0
0.5353553390335396 0.8353553390851153 0.0
0.7646446608686222 0.2353553389872768 0.0
0.7646446609886541 0.1646446608926911 0.0
0.8353553391313779 0.1646446610127232 0.0
0.835355339011346 0.2353553391073089 0.0
0.7646446609148848 0.5353553390335396 0.0
0.7646446609622022 0.4646446609191431 0.0
0.8353553391259622 0.4646446610073074 0.0
0.8353553390335396 0.5353553390851152 0.0
0.7646446609148848 0.8353553390335396 0.0
0.8353553390851153 0.7646446609664604 0.0
0.8353553390335396 0.8353553390851153 0.0
0.2353553389872768 0.8353553391313779 0.0
0.5353553390851152 0.7646446609664604 0.0
0.7646446609664604 0.7646446609148848 0.0
0.3499999999999999 0.35 0.0
0.35 0.6499999999999998 0.0
0.6473644356934525 0.3496269852619946 0.0
0.6500000000000001 0.6500000000000001 0.0
0.2399686363259808 0.34819671291723 0.0
0.3481967129135171 0.2399686363075341 0.0
0.4583333333333333 0.35 0.0
0.65 0.2416666666666666 0.0
0.2404874314209711 0.6507413656684565 0.0
0.3491806416634176 0.458142355134015 0.0
0.4583333333333332 0.65 0.0
0.6500000000000001 0.4583333333333335 0.0
0.3481303969591499 0.76004049547409 0.0
0.7600404954877868 0.3481303969748522 0.0
0.6506316090218678 0.7594757579349837 0.0
0.7583333333333337 0.6500000000000001 0.0
0.5543875290826457 0.3649527369343571 0.0
0.3350472630652186 0.5543875290827233 0.0
0.5495039109432025 0.6669937706276885 0.0
0.6281515197999072 0.5571401543071524 0.0
0.587100436123519 0.2963517508534627 0.0
0.403524894325509 0.5870572319767361 0.0
0.7036482491495735 0.5871004361230707 0.0
0.4101486773328166 0.2898513226671833 0.0
0.2885560492200898 0.2896204066087528 0.0
0.4096473350200414 0.410859893347513 0.0
0.2895822423691862 0.4111568569499127 0.0
0.710379593391248 0.2885560492200685 0.0
0.2903282422582213 0.7094766447640383 0.0
0.4111568569497844 0.7104177576306474 0.0
0.7097402587865809 0.4096679985095072 0.0
0.7093807814244848 0.7096637690535222 0.0
0.5757576639895363 0.5934450408933407 0.0
0.2742893992972195 0.5907080254300093 0.0
0.590708025429277 0.4257106007035643 0.0
0.5888462273653913 0.7249675886220237 0.0
0.5174013060282862 0.3173311452076683 0.0
0.382668854793801 0.5174013060277558 0.0
0.6826688547935643 0.5174013060278416 0.0
0.5093520464007313 0.6202292086916971 0.0
0.4981159893048187 0.3940710066319346 0.0
0.3056617602187141 0.4959423944416054 0.0
0.6091203914685013 0.4955611555134115 0.0
0.495612321612007 0.691576138997834 0.0
0.5926842712817088 0.2383910822572332 0.0
0.7616089177718327 0.592684271293819 0.0
0.4087892044540404 0.2343873030677552 0.0
0.2339025950442927 0.4087203824382344 0.0
0.2953072543855718 0.2335429117470989 0.0
0.2336235457140487 0.2962748528686351 0.0
0.7054964172299596 0.2340247346852367 0.0
0.2332681143585927 0.7059807350405478 0.0
0.7659752653147631 0.2945035827700396 0.0
0.29450358277004 0.765975265314763 0.0
0.4087203824384428 0.766097404954834 0.0
0.765612696925477 0.4087892044599658 0.0
0.7058535849563643 0.7668337446242722 0.0
0.7663764542832314 0.7037251471365775 0.0
0.4601106386936329 0.5919575462900033 0.0
0.2958333333333336 0.6411821829854161 0.0
0.6425616008642903 0.4045330308137962 0.0
0.6411821829776568 0.7041666666666668 0.0
0.4651121924366097 0.2953668503995218 0.0
0.4133327709178208 0.4665162517799364 0.0
0.7108938123935113 0.4647993644000941 0.0
0.2958333333333332 0.3440179893338501 0.0
0.3440179893338501 0.2958333333333333 0.0
0.4041666666666666 0.3440179893338498 0.0
0.3440179893338499 0.4041666666666666 0.0
0.6559820106661494 0.2958333333333332 0.0
0.7055427304470065 0.3471465878541565 0.0
0.403543749634104 0.6556997188567407 0.0
0.3459829601453851 0.7044806425898851 0.0
0.7041666666666669 0.6559820106661493 0.0
0.2217337876552666 0.5947326986426161 0.0
0.5965254491793782 0.773718372211694 0.0
0.5988322727896861 0.6427584683324706 0.0
0.612179606276336 0.3528316956643494 0.0
0.3471061352132176 0.6126188669942978 0.0
0.6526336219212913 0.6034917091381212 0.0
0.5802931724945696 0.5468527409798056 0.0
0.5420562356766417 0.4224338777559342 0.0
0.2770651716931306 0.5488869812663374 0.0
0.5512732134561602 0.7255112098803835 0.0
0.4581286225401084 0.4184081079166123 0.0
0.2851849919974836 0.4569435245507441 0.0
0.4568963712891624 0.7144204221759494 0.0
0.5458417321117149 0.2804392337379668 0.0
0.419560766274629 0.5458417321074579 0.0
0.7195607662726012 0.5458417321081432 0.0
0.557515083410753 0.3278628115594392 0.0
0.3721195663253719 0.5575089113890993 0.0
0.6816505670643563 0.5563292969151862 0.0
0.5782628818834022 0.469453908155296 0.0
0.5339914530071599 0.5799768497434585 0.0
0.6778189550147194 0.3823297223180972 0.0
0.3806692719749488 0.3794794053578679 0.0
0.6031916925963009 0.6850593319137793 0.0
0.6152952653512639 0.5912098217952253 0.0
0.3080351053327159 0.6066455306251647 0.0
0.6073381182080517 0.3928418132212382 0.0
0.5188378951583363 0.657243268250658 0.0
0.6227879634834022 0.2720855369568286 0.0
0.4297005690644461 0.6213403899621088 0.0
0.7279144630431419 0.6227879634831338 0.0
0.3134488757566858 0.6735082221753057 0.0
0.6734977137673028 0.6865499687462943 0.0
0.4975966715703134 0.3555718576784828 0.0
0.3446608508648358 0.4976961106201871 0.0
0.6455250652173288 0.4987375169206328 0.0
0.5581218400959108 0.6300991360607872 0.0
0.2733388455842901 0.6725484598706681 0.0
0.6721026558922282 0.4289342995119541 0.0
0.6725120528333262 0.7266821724045222 0.0
0.372231953115409 0.2713924187922584 0.0
0.3789811838411536 0.3138229257968368 0.0
0.2714990505902719 0.3731786942176493 0.0
0.4273988655771155 0.3742822003535886 0.0
0.3168684820845263 0.3771999948723678 0.0
0.3722608289988868 0.4286849759827419 0.0
0.3798287820100144 0.6871339092923177 0.0
0.3727683006349655 0.728828870227187 0.0
0.7277202940533956 0.3736809353015098 0.0
0.3169599758651357 0.4385894865458022 0.0
0.4387648948853521 0.6828926709407204 0.0
0.4331871746731967 0.2571148222585203 0.0
0.2688137444097084 0.2580846945882648 0.0
0.7418661398047732 0.2687317371008444 0.0
0.2572559293297506 0.7326262989663777 0.0
0.7373179166357983 0.4370124034079068 0.0
0.7324985765604758 0.7427494920323041 0.0
0.4363752609421774 0.3182159251115837 0.0
0.3186306883467298 0.2641424860352014 0.0
0.2641424860352014 0.3186306883467299 0.0
0.6811404121496568 0.2659726027584816 0.0
0.7330136538026206 0.3161689413209323 0.0
0.3186306883467295 0.7358575139647991 0.0
0.7351422541904669 0.6808169136528346 0.0
0.6227274273323378 0.3150695004700235 0.0
0.384930499531615 0.6227274273313506 0.0
0.6848450300225655 0.6228530669982837 0.0
0.6135189012351409 0.4544448152399559 0.0
0.2433956689482044 0.5710690127925019 0.0
0.5706540787777856 0.7566824743053321 0.0
0.255377304744328 0.4296853884525523 0.0
0.4296775295763755 0.7445569309503172 0.0
0.4327372277734981 0.4403392973397692 0.0
0.3139994004633959 0.313561969584934 0.0
0.6854614160240171 0.3145385839759824 0.0
0.268500478405961 0.6276089653380916 0.0
0.6243810588594197 0.7347027911402588 0.0
0.6276599636114613 0.6234587701321436 0.0
0.4768864882821316 0.620788403970857 0.0
0.500948616507356 0.28449332788912 0.0
0.4167474928002096 0.501151587204942 0.0
0.7164010525078831 0.50090392679795 0.0
0.4656335514664457 0.3886823352622866 0.0
0.4923625899774756 0.5865938536562771 0.0
0.4792486220862863 0.3231446111213303 0.0
0.3829769127135646 0.472407063410141 0.0
0.6826033652105242 0.4723296404325021 0.0
0.5671218921311648 0.4003939192333382 0.0
0.304124629604745 0.5698745953089001 0.0
0.5675942382915342 0.6927211264531756 0.0
0.5776182081774853 0.5140966147196719 0.0
0.5310404634163549 0.3466166722805623 0.0
0.3548331621353121 0.5308936801953571 0.0
0.6522270038082831 0.5349978372892439 0.0
0.5751875545920694 0.2641232307813617 0.0
0.7358767692356145 0.5751875545987972 0.0
0.3203296441219174 0.4694627742584707 0.0
0.4673122050858197 0.6789739314584685 0.0
0.5625571377369535 0.4406740491267768 0.0
0.6085444971441977 0.5318419919306583 0.0
0.4370308789404248 0.574532141321551 0.0
0.5110976285887319 0.4206597222222223 0.0
0.2754875003250858 0.5157681347807389 0.0
0.5161108279979969 0.7244815464631668 0.0
0.6321074702013897 0.6748883283122041 0.0
0.3228846899271906 0.6367909605560369 0.0
0.63745254321137 0.3764326494558951 0.0
0.266131284771671 0.2257554073880608 0.0
0.2877985123288758 0.1966776082701902 0.0
0.3253052648378781 0.2214097878866105 0.0
0.3498769158115643 0.2017252217219252 0.0
[...]
<PointData Scalars="solution">
<DataArray type="Float64" Name="Real part" format="ascii">
0.569293214007197
0.5692943991010769
0.5692253273825211
0.5692197577095579
0.528324120096247
0.5355581507542242
0.5355466190383897
0.5284631583132859
0.514241633561229
0.5165920328742706
0.5163443407225302
0.5033122202551518
0.5354857426666131
0.5354465845652302
0.5282778848656032
0.5282466159082495
0.5030852668889135
0.5162602985028244
0.5166033496795799
0.5168260741076868
0.49033108036702944
0.4908320844767418
0.4910848915002502
0.49065475016718496
0.5165555617889106
0.516294325675866
0.5032846497378732
0.5141760861699397
0.5284700727342189
0.528779597266076
0.5355785267862576
0.5355453620580198
0.5167902506738414
0.5031109936394491
0.516219193636486
0.5165683958462488
0.5354495115791233
0.5282937552575229
0.528692356253174
0.5355101679308061
0.5311467931585993
0.5393455057944915
0.5313581216865774
0.5239424830238559
0.5170928933045399
0.51727326633087
0.507266785212246
0.5071300307589512
0.5392606271365349
0.5312435075526303
0.5238674017481479
0.5077355029087482
0.517085449563672
0.5179490105133657
0.507284955989602
0.48992535944952625
0.49035520066828986
0.49053181551632435
0.4901266749963451
0.517231038071479
0.5072050552951954
0.5170597039460052
0.524067980706263
0.5320274829527573
0.5393543721230143
0.5313537397931244
0.5072668366835286
0.5076864819104849
0.5170526110415635
0.5179101506920498
0.5312435576361154
0.531961949495759
0.5392736139819629
0.5310772479797576
0.50715609230121
0.5239877024676826
0.47971828333841426
0.479648613160103
0.47941884985032834
0.47948140120370575
0.5001443306238655
0.500143868723876
0.4763691817860808
0.49919428538348737
0.49988416117892653
0.47649785238189024
0.47631102779691314
0.47643168839569505
0.500078261673975
0.5001032395696114
0.49987889220742204
0.49914170195515634
0.4754796304561837
0.47793014031144543
0.4780880300374655
0.4752381099496842
0.48438161570335014
0.47461746091167667
0.48431855913799104
0.4857826410517512
0.49692796481690193
0.4747064085052425
0.48581853741813985
0.4968492735437548
0.4961080986367215
0.48577020463112947
0.48567025852315837
0.49603608909585767
0.4751278434052347
0.48949863105671715
0.47534424389030466
0.4892903646672567
0.48086022551930235
0.4758891052916022
0.48076519004568175
0.47579045992369745
0.4768976807615086
0.48336911432151364
0.47640055646161367
0.48261222669014925
0.4993278106602594
0.4992918838887294
0.500673868187277
0.5008257834188418
0.5083330578373173
0.5080840663687209
0.5082945283040263
0.5084524377175286
0.5083395804696969
0.5082269902675149
0.5007724033692057
0.5006261602607788
0.5084579590379333
0.5079908169723879
0.47709418496696365
0.4866068285311583
0.4759507381479922
0.486563578917266
0.48566305709914465
0.47831469094295354
0.48728732320143536
0.4878483044220821
0.4878145525882155
0.47720978499681727
0.4772377576774916
0.48767357727564997
0.48773290105100464
0.47709033219335134
0.48771129280398207
0.4876208039602579
0.5049319241135325
0.5032798301615442
0.4758800699693952
0.47682172990095206
0.47741255419703493
0.47697970042004795
0.47791285699782854
0.47875038057522046
0.48995458121969143
0.4906134636458885
0.47825754409164317
0.4877816112148514
0.48762277673730314
0.48900757050919313
0.47780024489226247
0.48903960522722584
0.4786738016355467
0.4749493717626206
0.48025998672110765
0.47946502599153756
0.4786007845549762
0.48048394782227416
0.47530294006867024
0.4810837088856975
0.47451748105009234
0.4824663427240751
0.4745523332195327
0.4770532811295018
0.49007755739609354
0.474640433044414
0.4900293562153524
0.4867060222623044
0.48663256102830743
0.476181084534445
0.4768950068155005
0.47610587095597406
0.4748205884658773
0.4939025404038184
0.47877842899461964
0.4938523500607059
0.4907701956239799
0.48207622960368884
0.4907113176061751
0.4749168136752108
0.48163678970236834
0.4750161294674618
0.4821449962233172
0.49074729977196935
0.49042736180458985
0.48053835566153064
0.4804313615930266
0.49511239557713
0.507551517915446
0.5075883719104722
0.5080486433525978
0.4935437369198765
0.5080392027631115
0.4803714757792146
0.49703927906445744
0.49709793853415374
0.49645563795239117
0.49670818238590997
0.49709783730674717
0.49660974688319337
0.48184828827134796
0.47521162823992386
0.4817973620634436
0.47534999043714793
0.499168492595871
0.49923885537960394
0.4955070882139948
0.4954398486467316
0.47844768046524067
0.48843781519056456
0.4881452548481007
0.49147232481697656
0.492007925113503
0.47603770179235494
0.4757245712693238
0.489091869656922
0.47984353139703534
0.48932303773851726
0.4756331533176333
0.4791821709440211
0.4798408425044343
0.47567616453611883
0.4806748289399506
0.4751104025193417
0.48288942975836013
0.4822380083754586
0.48099694228956164
0.47681584363529445
0.47616255646442535
0.4765393913059603
0.492401793793636
0.49237784132837653
0.4802258647215808
0.4800366637074213
0.47926022855478706
0.475849556086336
0.4769227669532607
0.48066519075546416
0.4918535192516923
0.49182376171947895
0.48108170252272237
0.48184840403905393
0.47666163235832143
0.516794795115386
0.5189254021352065
0.5075341618469922
0.5114985309674612
0.5082745846999908
0.5169249894708855
0.5189187165627098
0.5075193585832871
0.511474067127259
0.5082332467249272
0.5167391854611404
0.5186589792811579
0.5068017048040021
0.5091130532590048
0.5052785031320162
0.5157751225713427
0.5188221530450752
0.507484053834608
0.5114849275774956
0.5083627191207576
0.5162691088519202
0.5194584947316494
0.5103670256234311
0.5111395190426322
0.509166777753736
0.5015813259292791
0.5167745926463122
0.5186554048383053
0.5068286983832627
0.5091077596016679
0.5160039486272304
0.5187541274271188
0.507449142787065
0.5114273607769462
0.5083084234211989
0.5052278464502254
0.515909404566556
0.5193045632956912
0.5103099686728256
0.5110929462585224
0.5091286970561024
0.5015364312671788
0.47581728083604974
0.48126889031508013
0.4822167652266901
0.5043382634872395
0.5043083108742742
0.5054763962874916
0.505424011011867
0.49487817694342745
0.4959558561595519
0.4833962950082973
0.47487206662062004
0.48208763827648277
0.5011077751088255
0.5010925385463378
0.5010563735675833
0.5010260444514364
0.47690415018849164
0.5013896808311649
0.5007261102686054
0.5008032296046058
0.5014187939598547
0.4776578551194669
0.4842111715123652
0.49310067669745195
0.4933970536290312
0.4936746392072934
0.4924901152329833
0.47464402293574365
0.4756854852185442
0.5033934702017727
0.5028097814788616
0.5027471045905222
0.5027026688023216
0.4777589713360156
0.4757887896191658
0.4753993850694882
0.4772534878802404
0.48294467301349836
0.4837647439366386
0.48366989523555703
0.5066449876287377
0.5184765189251919
0.5200222547253933
0.5065961048187363
0.5184225249155582
0.5199408101213249
0.4987127540764118
0.49636702662365695
0.49675558836313327
0.49680894180724516
0.48417694516610965
0.47754619805299425
0.4819368204051773
0.49335433502081194
0.4933267189649367
0.4753132947119463
0.4835407915700772
0.483842803812986
0.502917045576198
0.5028070322396538
0.5028704840607611
0.5033440143661125
0.5028674427925207
0.5031953633553446
0.4826828856589284
0.4786409596681402
0.4785736619699143
0.4870866202336705
0.48047126017945324
0.4770490755066017
0.4769292800979977
0.48059464734771207
0.4926703255247521
0.4926177414937451
0.4906510502777278
0.4906426786375841
0.47894028905348335
0.4751788803881021
0.47644630268198107
0.4793788849170171
0.4807332687883272
0.4768640099021261
0.49352942519283266
0.49353218279998995
0.49332155978268494
0.49310174497479875
0.47593015982538267
0.4754894206312899
0.4995874323207465
</DataArray>
<DataArray type="Float64" Name="Imag part" format="ascii">
0.0
0.0
0.0
0.0
0.0
0.0
0.0
0.0
0.0
0.0
0.0
0.0
0.0
0.0
0.0
0.0
0.0
0.0
0.0
0.0
0.0
0.0
0.0
0.0
0.0
0.0
0.0
0.0
0.0
0.0
0.0
0.0
0.0
0.0
0.0
0.0
0.0
0.0
0.0
0.0
0.0
0.0
0.0
0.0
0.0
0.0
0.0
0.0
0.0
0.0
0.0
0.0
0.0
0.0
0.0
0.0
0.0
0.0
0.0
0.0
0.0
0.0
0.0
0.0
0.0
0.0
0.0
0.0
0.0
0.0
0.0
0.0
0.0
0.0
0.0
0.0
0.0
0.0
0.0
0.0
0.0
0.0
0.0
0.0
0.0
0.0
0.0
0.0
0.0
0.0
0.0
0.0
0.0
0.0
0.0
0.0
0.0
0.0
0.0
0.0
0.0
0.0
0.0
0.0
0.0
0.0
0.0
0.0
0.0
0.0
0.0
0.0
0.0
0.0
0.0
0.0
0.0
0.0
0.0
0.0
0.0
0.0
0.0
0.0
0.0
0.0
0.0
0.0
0.0
0.0
0.0
0.0
0.0
0.0
0.0
0.0
0.0
0.0
0.0
0.0
0.0
0.0
0.0
0.0
0.0
0.0
0.0
0.0
0.0
0.0
0.0
0.0
0.0
0.0
0.0
0.0
0.0
0.0
0.0
0.0
0.0
0.0
0.0
0.0
0.0
0.0
0.0
0.0
0.0
0.0
0.0
0.0
0.0
0.0
0.0
0.0
0.0
0.0
0.0
0.0
0.0
0.0
0.0
0.0
0.0
0.0
0.0
0.0
0.0
0.0
0.0
0.0
0.0
0.0
0.0
0.0
0.0
0.0
0.0
0.0
0.0
0.0
0.0
0.0
0.0
0.0
0.0
0.0
0.0
0.0
0.0
0.0
0.0
0.0
0.0
0.0
0.0
0.0
0.0
0.0
0.0
0.0
0.0
0.0
0.0
0.0
0.0
0.0
0.0
0.0
0.0
0.0
0.0
0.0
0.0
0.0
0.0
0.0
0.0
0.0
0.0
0.0
0.0
0.0
0.0
0.0
0.0
0.0
0.0
0.0
0.0
0.0
0.0
0.0
0.0
0.0
0.0
0.0
0.0
0.0
0.0
0.0
0.0
0.0
0.0
0.0
0.0
0.0
0.0
0.0
0.0
0.0
0.0
0.0
0.0
0.0
0.0
0.0
0.0
0.0
0.0
0.0
0.0
0.0
0.0
0.0
0.0
0.0
0.0
0.0
0.0
0.0
0.0
0.0
0.0
0.0
0.0
0.0
0.0
0.0
0.0
0.0
0.0
0.0
0.0
0.0
0.0
0.0
0.0
0.0
0.0
0.0
0.0
0.0
0.0
0.0
0.0
0.0
0.0
0.0
0.0
0.0
0.0
0.0
0.0
0.0
0.0
0.0
0.0
0.0
0.0
0.0
0.0
0.0
0.0
0.0
0.0
0.0
0.0
0.0
0.0
0.0
0.0
0.0
0.0
0.0
0.0
0.0
0.0
0.0
0.0
0.0
0.0
0.0
0.0
0.0
0.0
0.0
0.0
0.0
0.0
0.0
0.0
0.0
0.0
0.0
0.0
0.0
0.0
0.0
0.0
0.0
0.0
0.0
0.0
0.0
0.0
0.0
0.0
0.0
0.0
0.0
0.0
0.0
0.0
0.0
0.0
0.0
</DataArray>
</PointData>
</Piece>
</UnstructuredGrid>
</VTKFile>
