<VTKFile type="UnstructuredGrid" version="1.0" byte_order="LittleEndian" header_type="UInt64">
<UnstructuredGrid>
<Piece NumberOfPoints="116" NumberOfCells="188">
<Points>
<DataArray NumberOfComponents="3" type="Float64">
0.0 0.0 0.0
1.0 0.0 0.0
1.0 1.0 0.0
0.0 1.0 0.0
0.5 0.7 0.0
0.3 0.5 0.0
0.5 0.3 0.0
0.7 0.5 0.0
0.3999999997514592 0.6732050806133926 0.0
0.3267949191210008 0.5999999997884967 0.0
0.3267949193798667 0.3999999997631344 0.0
0.4000000002588777 0.3267949190936491 0.0
0.6000000002592945 0.3267949193928159 0.0
0.673205080922642 0.4000000002870948 0.0
0.6732050806196002 0.600000000237789 0.0
0.5999999998483773 0.6732050808444271 0.0
0.1249999999997738 0.0 0.0
0.2499999999994121 0.0 0.0
0.3749999999990476 0.0 0.0
0.499999999998694 0.0 0.0
0.6249999999990125 0.0 0.0
0.7499999999993416 0.0 0.0
0.8749999999996708 0.0 0.0
1.0 0.1249999999997738 0.0
1.0 0.2499999999994121 0.0
1.0 0.3749999999990476 0.0
1.0 0.499999999998694 0.0
1.0 0.6249999999990125 0.0
1.0 0.7499999999993416 0.0
1.0 0.8749999999996708 0.0
0.8749999999995011 1.0 0.0
0.7500000000003465 1.0 0.0
0.6250000000012137 1.0 0.0
0.5000000000020591 1.0 0.0
0.3750000000015605 1.0 0.0
0.2500000000010404 1.0 0.0
0.1250000000005203 1.0 0.0
0.0 0.8749999999995011 0.0
0.0 0.7500000000003465 0.0
0.0 0.6250000000012137 0.0
0.0 0.5000000000020591 0.0
0.0 0.3750000000015605 0.0
0.0 0.2500000000010404 0.0
0.0 0.1250000000005203 0.0
0.7946385622774257 0.7946385626961859 0.0
0.2053614372841146 0.7946385622211701 0.0
0.2053614378111074 0.2053614372780008 0.0
0.7946385627394386 0.2053614378481332 0.0
0.8426127064846893 0.3954323324714243 0.0
0.8413733066211185 0.5998705115829067 0.0
0.3954323324415426 0.1573872935325416 0.0
0.15738729354872 0.6045676675982823 0.0
0.5998705116201912 0.1586266934048792 0.0
0.4001294884313704 0.8413733066034399 0.0
0.1586266933948885 0.4001294884134728 0.0
0.6045676676524664 0.8426127064236408 0.0
0.6967041187589827 0.1071232972112076 0.0
0.1071232971961154 0.303295881267411 0.0
0.8928767028345895 0.6967041187069927 0.0
0.3032958812797522 0.8928767028148834 0.0
0.6971834199663222 0.8930031724036345 0.0
0.3028165801096526 0.1069968275685607 0.0
0.1069968275779087 0.6971834199207385 0.0
0.8930031724447276 0.3028165801368449 0.0
0.7087499992283587 0.7087499996355201 0.0
0.2912500003320354 0.7087499991869449 0.0
0.2912500008344658 0.2912500003161196 0.0
0.7087499997075576 0.2912500008637219 0.0
0.8745028529813071 0.125497147018695 0.0
0.1254971470054552 0.1254971470054522 0.0
0.1254971469920393 0.8745028530079606 0.0
0.8745028530294673 0.874502853029467 0.0
0.500334607175501 0.892348181714109 0.0
0.8923481817562197 0.4996653928975518 0.0
0.4996653928931433 0.1076518182587971 0.0
0.1076518182656918 0.5003346071460619 0.0
0.7986630750202186 0.4991613729360201 0.0
0.499161372946116 0.2013369249926115 0.0
0.2013369249970211 0.5008386270829949 0.0
0.5008386271124425 0.7986630749887471 0.0
0.7548188924716284 0.6105371158669828 0.0
0.3894628841176805 0.7548188924555598 0.0
0.6105371159229299 0.2451811075551359 0.0
0.2451811075439173 0.3894628841031615 0.0
0.7549664402980436 0.3887040262046607 0.0
0.3887040261779166 0.2450335597177383 0.0
0.2450335597348732 0.6112959738517263 0.0
0.6112959738988676 0.7549664402385815 0.0
0.9179665821743259 0.2071874287999732 0.0
0.2071874287800045 0.08203341780989647 0.0
0.08203341779143425 0.7928125712426418 0.0
0.7928125712768953 0.9179665822359968 0.0
0.917966582491212 0.7928125715338031 0.0
0.2071874284538683 0.9179665825101239 0.0
0.08203341748488845 0.207187428452958 0.0
0.7928125715605365 0.0820334174675977 0.0
0.9247757986387262 0.4187188471911926 0.0
0.4187188471852974 0.07522420136998449 0.0
0.07522420139160517 0.5812811528579277 0.0
0.5812811528897679 0.9247757985858029 0.0
0.4187188466254585 0.9247757983761431 0.0
0.9247757983642485 0.5812811534447782 0.0
0.07522420162641713 0.4187188465988808 0.0
0.5812811534425396 0.07522420164095978 0.0
0.6832871246046881 0.7987941762795127 0.0
0.7984914926866241 0.6821000616977178 0.0
0.2012058236955304 0.6832871245557725 0.0
0.316712875474937 0.2012058236825922 0.0
0.7987941763348914 0.316712875504957 0.0
0.3178999382889906 0.7984914926563996 0.0
0.2015085073560989 0.3178999382756331 0.0
0.6821000617498201 0.2015085073766156 0.0
0.9370048146669585 0.9370048146670429 0.0
0.06299518535429484 0.9370048146457156 0.0
0.937004814618902 0.0629951853808226 0.0
0.06299518536759213 0.0629951853679624 0.0
</DataArray>
</Points>
<Cells>
<DataArray type="Int32" Name="connectivity">
6 77 82
7 76 80
5 78 83
4 79 81
76 7 84
77 6 85
78 5 86
79 4 87
14 7 80
12 6 82
10 5 83
8 4 81
7 13 84
6 11 85
5 9 86
4 15 87
79 53 81
77 52 82
78 54 83
76 49 80
20 21 56
41 42 57
34 35 59
27 28 58
31 32 60
38 39 62
17 18 61
24 25 63
48 76 84
50 77 85
51 78 86
55 79 87
20 56 103
41 57 102
34 59 100
27 58 101
60 32 99
62 39 98
61 18 97
63 25 96
13 12 67
11 10 66
9 8 65
15 14 64
56 52 103
59 53 100
57 54 102
58 49 101
50 61 97
55 60 99
48 63 96
51 62 98
47 56 95
46 57 94
45 59 93
44 58 92
60 44 91
62 45 90
61 46 89
63 47 88
68 47 95
69 46 94
70 45 93
71 44 92
44 71 91
45 70 90
46 69 89
47 68 88
52 56 111
49 58 105
54 57 110
53 59 109
61 50 107
63 48 108
60 55 104
62 51 106
56 47 111
57 46 110
59 45 109
58 44 105
44 60 104
45 62 106
46 61 107
47 63 108
68 23 88
69 16 89
70 37 90
71 30 91
29 71 92
36 70 93
43 69 94
22 68 95
13 67 84
11 66 85
9 65 86
64 14 80
15 64 87
65 8 81
66 10 83
67 12 82
82 52 111
83 54 110
80 49 105
81 53 109
50 85 107
55 87 104
51 86 106
48 84 108
23 24 88
16 17 89
37 38 90
30 31 91
28 29 92
35 36 93
42 43 94
21 22 95
26 27 101
19 20 103
40 41 102
33 34 100
32 33 99
39 40 98
18 19 97
25 26 96
72 53 79
73 49 76
74 52 77
75 54 78
56 21 95
57 42 94
59 35 93
58 28 92
31 60 91
17 61 89
38 62 90
24 63 88
48 73 76
50 74 77
51 75 78
55 72 79
23 68 114
68 22 114
16 69 115
69 43 115
37 70 113
70 36 113
30 71 112
71 29 112
44 64 105
64 44 104
65 45 106
45 65 109
66 46 107
67 47 108
46 66 110
47 67 111
22 1 114
1 23 114
43 0 115
3 37 113
0 16 115
36 3 113
2 30 112
29 2 112
73 26 101
74 19 103
75 40 102
72 33 100
33 72 99
40 75 98
19 74 97
26 73 96
73 48 96
74 50 97
75 51 98
72 55 99
53 72 100
49 73 101
54 75 102
52 74 103
67 82 111
64 80 105
65 81 109
66 83 110
84 67 108
85 66 107
86 65 106
87 64 104
</DataArray>
<DataArray type="Int32" Name="offsets">
3
6
9
12
15
18
21
24
27
30
33
36
39
42
45
48
51
54
57
60
63
66
69
72
75
78
81
84
87
90
93
96
99
102
105
108
111
114
117
120
123
126
129
132
135
138
141
144
147
150
153
156
159
162
165
168
171
174
177
180
183
186
189
192
195
198
201
204
207
210
213
216
219
222
225
228
231
234
237
240
243
246
249
252
255
258
261
264
267
270
273
276
279
282
285
288
291
294
297
300
303
306
309
312
315
318
321
324
327
330
333
336
339
342
345
348
351
354
357
360
363
366
369
372
375
378
381
384
387
390
393
396
399
402
405
408
411
414
417
420
423
426
429
432
435
438
441
444
447
450
453
456
459
462
465
468
471
474
477
480
483
486
489
492
495
498
501
504
507
510
513
516
519
522
525
528
531
534
537
540
543
546
549
552
555
558
561
564
</DataArray>
<DataArray type="UInt8" Name="types">
5
5
5
5
5
5
5
5
5
5
5
5
5
5
5
5
5
5
5
5
5
5
5
5
5
5
5
5
5
5
5
5
5
5
5
5
5
5
5
5
5
5
5
5
5
5
5
5
5
5
5
5
5
5
5
5
5
5
5
5
5
5
5
5
5
5
5
5
5
5
5
5
5
5
5
5
5
5
5
5
5
5
5
5
5
5
5
5
5
5
5
5
5
5
5
5
5
5
5
5
5
5
5
5
5
5
5
5
5
5
5
5
5
5
5
5
5
5
5
5
5
5
5
5
5
5
5
5
5
5
5
5
5
5
5
5
5
5
5
5
5
5
5
5
5
5
5
5
5
5
5
5
5
5
5
5
5
5
5
5
5
5
5
5
5
5
5
5
5
5
5
5
5
5
5
5
5
5
5
5
5
5
5
5
5
5
5
5
</DataArray>
</Cells>
<PointData Scalars="solution">
<DataArray type="Float64" Name="Real part" format="ascii">
0.004430457660197666
0.004430457660208283
0.004430457660212592
0.004430457660200128
0.004716227375198414
0.004716227375194178
0.004716227375198896
0.004716227375207916
0.004704680785244843
0.004704615561231818
0.004704680785241958
0.004704615561236069
0.004704680785246621
0.004704615561247759
0.00470468078525648
0.004704615561235043
0.004451496736336027
0.004507662692657026
0.00456362268552838
0.00458680116267999
0.004563715737316185
0.00450762911427464
0.004451486162231371
0.00445149673634632
0.004507662692669144
0.004563622685541282
0.004586801162692298
0.004563715737330826
0.0045076291142866496
0.004451486162238196
0.004451496736351697
0.004507662692666473
0.0045636226855353635
0.00458680116268035
0.0045637157373130425
0.004507629114271154
0.00445148616222483
0.0044514967363389266
0.004507662692657384
0.004563622685527935
0.004586801162675454
0.004563715737308913
0.004507629114267133
0.004451486162221627
0.004550973591827799
0.004550973591837327
0.004550973591850198
0.004550973591871161
0.004619923684519512
0.004622322441565595
0.004619923684508324
0.004619923684503315
0.004622322441558328
0.004622322441568217
0.0046223224415567945
0.004619923684509272
0.00455500042312918
0.004555000423128522
0.0045550004231448655
0.004555000423134381
0.004554754939820092
0.0045547549398367
0.004554754939825427
0.004554754939855602
0.004652044501602515
0.004652044501596667
0.004652044501597252
0.00465204450160914
0.004477832742058338
0.004477832742038316
0.0044778327420307565
0.004477832742027021
0.004611641514068318
0.0046116415140561385
0.004611641514053302
0.004611641514052376
0.004665279464623591
0.004665279464623041
0.004665279464621962
0.004665279464637888
0.004670911699759119
0.0046709116997528085
0.004670911699746591
0.004670911699742612
0.00467045487473088
0.0046704548747209225
0.004670454874719963
0.004670454874727428
0.004499237950954874
0.00449923795092915
0.004499237950913689
0.004499237950899199
0.004499216499201807
0.00449921649917632
0.004499216499170799
0.004499216499167651
0.004589239653566048
0.00458923965355643
0.0045892396535513495
0.004589239653559054
0.0045893656419182015
0.004589365641915901
0.004589365641907262
0.0045893656419081375
0.004611816301411693
0.004612666645999862
0.004611816301411856
0.004611816301419109
0.004611816301434146
0.004612666645999803
0.0046126666459966135
0.004612666646003746
0.004445843154957057
0.004445843154953177
0.004445843154971871
0.004445843154956099
</DataArray>
<DataArray type="Float64" Name="Imag part" format="ascii">
0.0
0.0
0.0
0.0
0.0
0.0
0.0
0.0
0.0
0.0
0.0
0.0
0.0
0.0
0.0
0.0
0.0
0.0
0.0
0.0
0.0
0.0
0.0
0.0
0.0
0.0
0.0
0.0
0.0
0.0
0.0
0.0
0.0
0.0
0.0
0.0
0.0
0.0
0.0
0.0
0.0
0.0
0.0
0.0
0.0
0.0
0.0
0.0
0.0
0.0
0.0
0.0
0.0
0.0
0.0
0.0
0.0
0.0
0.0
0.0
0.0
0.0
0.0
0.0
0.0
0.0
0.0
0.0
0.0
0.0
0.0
0.0
0.0
0.0
0.0
0.0
0.0
0.0
0.0
0.0
0.0
0.0
0.0
0.0
0.0
0.0
0.0
0.0
0.0
0.0
0.0
0.0
0.0
0.0
0.0
0.0
0.0
0.0
0.0
0.0
0.0
0.0
0.0
0.0
0.0
0.0
0.0
0.0
0.0
0.0
0.0
0.0
0.0
0.0
0.0
0.0
</DataArray>
</PointData>
</Piece>
</UnstructuredGrid>
</VTKFile>
