<VTKFile type="UnstructuredGrid" version="1.0" byte_order="LittleEndian" header_type="UInt64">
<UnstructuredGrid>
<Piece NumberOfPoints="1196" NumberOfCells="2240">
<Points>
<DataArray NumberOfComponents="3" type="Float64">
0.0 0.0 0.0
100.0 0.0 0.0
100.0 100.0 0.0
0.0 100.0 0.0
50.0 66.66666666666667 0.0
33.33333333333333 50.0 0.0
50.0 33.33333333333333 0.0
66.66666666666667 50.0 0.0
46.74849462647915 66.34642133874394 0.0
43.62194278256145 65.39799220381859 0.0
40.74049609946879 63.85782686043613 0.0
38.21488695875455 61.78511299830615 0.0
36.1421731149179 59.2595038636459 0.0
34.6020077852752 56.37805719110862 0.0
33.65357865771193 53.2515053557033 0.0
33.65357866133657 46.74849462607447 0.0
34.60200779671398 43.62194278127574 0.0
36.14217314152439 40.74049609653466 0.0
38.21488700369007 38.21488695675834 0.0
40.74049613811457 36.14217311374158 0.0
43.62194281019548 34.60200778473502 0.0
46.74849464498891 33.65357865757424 0.0
53.25150537442846 33.6535786614366 0.0
56.37805721967177 34.60200779710644 0.0
59.25950390474444 36.14217314237905 0.0
61.78511304469204 38.21488700514045 0.0
63.85782688768287 40.74049614024641 0.0
65.39799221595781 43.62194281186814 0.0
66.34642134254389 46.74849464558285 0.0
66.34642133864389 53.25150537402379 0.0
65.39799220342611 56.37805721838606 0.0
63.85782685958146 59.25950390181031 0.0
61.78511299685577 61.78511304269582 0.0
59.25950386151408 63.85782688650656 0.0
56.37805718943596 65.39799221541764 0.0
53.25150535510935 66.3464213424062 0.0
3.333333333320178 0.0 0.0
6.666666666639676 0.0 0.0
9.999999999961542 0.0 0.0
13.333333333282 0.0 0.0
16.66666666659803 0.0 0.0
19.99999999991406 0.0 0.0
23.33333333323009 0.0 0.0
26.66666666654612 0.0 0.0
29.99999999986215 0.0 0.0
33.33333333318419 0.0 0.0
36.66666666651206 0.0 0.0
39.99999999983994 0.0 0.0
43.33333333316782 0.0 0.0
46.6666666664957 0.0 0.0
49.99999999982358 0.0 0.0
53.33333333315146 0.0 0.0
56.66666666647934 0.0 0.0
59.99999999980721 0.0 0.0
63.33333333313526 0.0 0.0
66.66666666648425 0.0 0.0
69.99999999983582 0.0 0.0
73.3333333331874 0.0 0.0
76.66666666653897 0.0 0.0
79.99999999989055 0.0 0.0
83.33333333324211 0.0 0.0
86.6666666665937 0.0 0.0
89.99999999994527 0.0 0.0
93.33333333329684 0.0 0.0
96.66666666664841 0.0 0.0
100.0 3.333333333320178 0.0
100.0 6.666666666639676 0.0
100.0 9.999999999961542 0.0
100.0 13.333333333282 0.0
100.0 16.66666666659803 0.0
100.0 19.99999999991406 0.0
100.0 23.33333333323009 0.0
100.0 26.66666666654612 0.0
100.0 29.99999999986215 0.0
100.0 33.33333333318419 0.0
100.0 36.66666666651206 0.0
100.0 39.99999999983994 0.0
100.0 43.33333333316782 0.0
100.0 46.6666666664957 0.0
100.0 49.99999999982358 0.0
100.0 53.33333333315146 0.0
100.0 56.66666666647934 0.0
100.0 59.99999999980721 0.0
100.0 63.33333333313526 0.0
100.0 66.66666666648425 0.0
100.0 69.99999999983582 0.0
100.0 73.3333333331874 0.0
100.0 76.66666666653897 0.0
100.0 79.99999999989055 0.0
100.0 83.33333333324211 0.0
100.0 86.6666666665937 0.0
100.0 89.99999999994527 0.0
100.0 93.33333333329684 0.0
100.0 96.66666666664841 0.0
96.66666666669036 100.0 0.0
93.33333333338072 100.0 0.0
90.0000000000711 100.0 0.0
86.66666666676146 100.0 0.0
83.33333333345182 100.0 0.0
80.00000000014218 100.0 0.0
76.66666666683254 100.0 0.0
73.33333333352292 100.0 0.0
70.00000000021328 100.0 0.0
66.66666666690364 100.0 0.0
63.3333333335914 100.0 0.0
60.00000000025826 100.0 0.0
56.66666666692493 100.0 0.0
53.33333333359159 100.0 0.0
50.00000000025826 100.0 0.0
46.66666666692493 100.0 0.0
43.3333333335916 100.0 0.0
40.00000000025825 100.0 0.0
36.66666666692474 100.0 0.0
33.33333333357031 100.0 0.0
30.00000000021326 100.0 0.0
26.66666666685624 100.0 0.0
23.33333333349921 100.0 0.0
20.00000000014219 100.0 0.0
16.66666666678516 100.0 0.0
13.33333333342811 100.0 0.0
10.0000000000711 100.0 0.0
6.666666666714065 100.0 0.0
3.333333333357032 100.0 0.0
0.0 96.66666666669036 0.0
0.0 93.33333333338072 0.0
0.0 90.0000000000711 0.0
0.0 86.66666666676146 0.0
0.0 83.33333333345182 0.0
0.0 80.00000000014218 0.0
0.0 76.66666666683254 0.0
0.0 73.33333333352292 0.0
0.0 70.00000000021328 0.0
0.0 66.66666666690364 0.0
0.0 63.3333333335914 0.0
0.0 60.00000000025826 0.0
0.0 56.66666666692493 0.0
0.0 53.33333333359159 0.0
0.0 50.00000000025826 0.0
0.0 46.66666666692493 0.0
0.0 43.3333333335916 0.0
0.0 40.00000000025825 0.0
0.0 36.66666666692474 0.0
0.0 33.33333333357031 0.0
0.0 30.00000000021326 0.0
0.0 26.66666666685624 0.0
0.0 23.33333333349921 0.0
0.0 20.00000000014219 0.0
0.0 16.66666666678516 0.0
0.0 13.33333333342811 0.0
0.0 10.0000000000711 0.0
0.0 6.666666666714065 0.0
0.0 3.333333333357032 0.0
21.97243888382294 21.93544900961671 0.0
78.06455099036982 21.97243888379156 0.0
21.93544900959576 78.02756111615072 0.0
78.02756111618211 78.06455099039084 0.0
82.43467123938896 39.28576003860329 0.0
39.28576003874964 17.56532876072725 0.0
60.71423996128407 82.43467123929618 0.0
17.56532876082002 60.71423996113771 0.0
39.71665064717475 82.41627152220309 0.0
17.58372847785888 39.71665064725116 0.0
82.41627152214802 60.28334935273872 0.0
60.28334935266233 17.58372847791392 0.0
13.10751742748666 13.10751742748913 0.0
86.89248257251077 13.10751742748713 0.0
13.10751742749 86.89248257251323 0.0
86.89248257251273 86.8924825725099 0.0
88.4423181406024 28.54439478883985 0.0
28.54439478896306 11.55768185943313 0.0
71.45560521106181 88.44231814056906 0.0
11.55768185946647 71.45560521093853 0.0
29.3829359501865 88.2628903878622 0.0
11.73710961213516 29.38293595028972 0.0
88.2628903878562 70.61706404973225 0.0
70.617064049629 11.73710961214126 0.0
87.76706276565075 50.08965516049587 0.0
49.91034483944698 87.76706276566478 0.0
50.08965516052621 12.23293723428654 0.0
12.23293723427258 49.91034483941659 0.0
72.67303890643501 33.00464467522955 0.0
33.00464467518817 27.32696109338049 0.0
66.99535532480836 72.67303890658644 0.0
27.32696109322902 66.99535532484975 0.0
77.36981264089704 48.65108871810751 0.0
51.34891128174135 77.36981264089584 0.0
48.65108871831822 22.63018735909023 0.0
22.63018735909144 51.34891128153063 0.0
36.23080194352428 72.91483823895491 0.0
72.91483823897681 63.76919805637986 0.0
27.08516176107933 36.23080194358748 0.0
63.76919805631664 27.08516176105742 0.0
91.12469604820592 41.55028986039643 0.0
58.44971013957336 91.12469604819266 0.0
41.55028986038872 8.875303951807302 0.0
8.875303951820568 58.44971013958114 0.0
41.20447589001721 90.50630971609041 0.0
90.50630971606287 58.79552410994367 0.0
9.493690283912974 41.20447588999408 0.0
58.79552410996676 9.493690283940417 0.0
20.35878223518061 9.279612250320758 0.0
9.266881556261914 20.92144427336327 0.0
90.72038774971338 20.35878223510434 0.0
9.279612250349345 79.6412177647604 0.0
79.07855572658022 9.266881556275987 0.0
20.92144427328756 90.73311844375607 0.0
79.64121776483668 90.7203877496848 0.0
90.73311844374197 79.07855572665602 0.0
20.32551164417866 30.43573500238561 0.0
30.43573500225341 79.67448835591887 0.0
69.56426499753596 20.32551164424173 0.0
79.67448835585573 69.56426499766813 0.0
73.90011275811698 40.39323439985611 0.0
40.39323439998254 26.09988724198604 0.0
59.60676560005243 73.9001127580261 0.0
26.09988724207695 59.60676559992596 0.0
43.78400297337058 73.84632391960625 0.0
73.84632391971921 56.21599702649799 0.0
26.1536760804995 43.78400297344051 0.0
56.21599702642803 26.15367608038649 0.0
80.39146512907845 31.31286515721813 0.0
31.31286515742493 19.60853487080768 0.0
68.68713484261666 80.39146512916867 0.0
19.60853487071747 68.68713484240982 0.0
8.11932489998945 8.057473900271905 0.0
91.94252609971316 8.119324899975826 0.0
8.057473900250423 91.88067509999856 0.0
91.88067510001221 91.94252609973465 0.0
92.42389908297925 34.19122079908588 0.0
34.19122079911644 7.576100916948434 0.0
65.80877920087333 92.42389908303335 0.0
7.576100916894347 65.80877920084274 0.0
34.32889031519188 92.65676540953396 0.0
7.343234590426878 34.32889031518909 0.0
92.65676540955289 65.67110968477574 0.0
65.67110968477849 7.343234590407997 0.0
20.09522457148011 16.41613047553638 0.0
83.58386952447967 20.09522457143506 0.0
16.41613047554565 79.90477542847876 0.0
79.9047754285238 83.58386952447049 0.0
81.94813647411624 53.40503788293596 0.0
46.59496211696113 81.94813647415648 0.0
53.40503788295982 18.051863525767 0.0
18.05186352572681 46.59496211693718 0.0
15.95480457330114 22.15207543796472 0.0
22.15207543787614 84.0451954266988 0.0
77.84792456197309 15.95480457330086 0.0
84.04519542669907 77.84792456206165 0.0
26.28892961176704 27.55625221976405 0.0
72.44374778012559 26.28892961181204 0.0
27.55625221966107 73.71107038829847 0.0
73.71107038825342 72.44374778022848 0.0
13.97883913091613 6.101097889130916 0.0
6.38763453810298 14.22040031177879 0.0
93.89890211086923 13.97883913086543 0.0
6.101097889124167 86.0211608690546 0.0
85.77959968819759 6.387634538097253 0.0
14.2204003117376 93.61236546189268 0.0
86.02116086910536 93.89890211087595 0.0
93.61236546189836 85.7795996882388 0.0
33.79476201135829 33.99990057507262 0.0
66.00009942500205 33.79476201128378 0.0
33.99990057526997 66.20523798858709 0.0
66.20523798866157 66.00009942480472 0.0
83.01861664843359 46.00348611572339 0.0
53.99651388417124 83.01861664841626 0.0
46.00348611585002 16.98138335158544 0.0
16.98138335160283 53.99651388404465 0.0
94.09486875695163 47.06150857271773 0.0
52.93849142727038 94.094868756955 0.0
47.06150857266551 5.905131243035211 0.0
5.905131243031796 52.93849142732267 0.0
25.95642583312405 5.943068652184383 0.0
94.05693134784404 25.956425833036 0.0
5.943068652207877 74.04357416680405 0.0
74.04357416689211 94.05693134782054 0.0
5.62110607648382 25.73966701758103 0.0
25.73966701751593 94.37889392350958 0.0
74.26033298236602 5.621106076480236 0.0
94.37889392351326 74.26033298243114 0.0
85.91217806114216 34.75547065943315 0.0
34.75547065961144 14.08782193877231 0.0
65.24452934042176 85.91217806120105 0.0
14.0878219387134 65.24452934024349 0.0
34.81593091710023 86.55361641550945 0.0
13.44638358448274 34.81593091721366 0.0
86.55361641549936 65.18406908281031 0.0
[...]
<PointData Scalars="solution">
<DataArray type="Float64" Name="Real part" format="ascii">
3.7621129891438338e-06
3.7621129891184905e-06
3.7621129891466264e-06
3.7621129891718096e-06
0.1744993173482305
0.1744993173523594
0.17449931735120924
0.17449931734708074
0.14691316355239642
0.1747048929910848
0.1477443486720545
0.15782940074754054
0.17819624237872733
0.18245730028374263
0.1564804561845379
0.14691316354712877
0.17470489298759997
0.1477443486765428
0.1578294007397445
0.17819624237670634
0.1824573002806855
0.15648045617672174
0.1469131635442075
0.1747048929827078
0.14774434867967431
0.15782940074396187
0.17819624238070073
0.18245730027592677
0.15648045616607414
0.146913163549474
0.17470489298619246
0.14774434867518693
0.15782940075175841
0.17819624238272258
0.18245730027898452
0.15648045617388998
4.851253140364485e-06
8.01773157496202e-06
1.3737873658060477e-05
2.529720213805315e-05
4.2595544899540475e-05
6.814869831745466e-05
0.00010033317882094342
0.00014737289060031585
0.00020633466217309776
0.0002633828649021438
0.0003255959701983796
0.000380526824203272
0.00042460298832501595
0.00044866380653781133
0.0004615887216099948
0.0004517127745894679
0.0004100704824168503
0.00037698337430383945
0.00032337199902447835
0.0002630185404538411
0.00020465087954197393
0.00014618083931055052
9.955558258466015e-05
6.772630565543013e-05
4.247895147652036e-05
2.502355518653021e-05
1.3716464135942613e-05
7.942615864830002e-06
4.832837716364433e-06
4.851253140330497e-06
8.017731574903009e-06
1.37378736579565e-05
2.5297202137856423e-05
4.259554489921226e-05
6.814869831699727e-05
0.0001003331788203472
0.0001473728905994284
0.00020633466217206503
0.0002633828649009375
0.0003255959701970565
0.0003805268242018702
0.00042460298832334525
0.00044866380653576355
0.0004615887216077235
0.0004517127745872393
0.0004100704824148077
0.0003769833743018821
0.0003233719990227885
0.00026301854045258547
0.00020465087954119426
0.0001461808393100791
9.955558258451087e-05
6.772630565543176e-05
4.2478951476575556e-05
2.50235551866022e-05
1.3716464136001145e-05
7.942615864875127e-06
4.832837716397866e-06
4.851253140363109e-06
8.0177315749427e-06
1.3737873658001638e-05
2.5297202137909962e-05
4.259554489928504e-05
6.81486983170182e-05
0.00010033317882027147
0.00014737289059930386
0.00020633466217183073
0.0002633828649004155
0.0003255959701963529
0.00038052682420108066
0.0004246029883228323
0.0004486638065358079
0.000461588721608129
0.00045171277458785924
0.00041007048241569876
0.0003769833743028848
0.0003233719990237823
0.0002630185404535928
0.00020465087954207439
0.0001461808393108154
9.955558258509333e-05
6.772630565586578e-05
4.247895147685952e-05
2.5023555186781965e-05
1.3716464136100747e-05
7.942615864932985e-06
4.8328377164309e-06
4.851253140396974e-06
8.017731575001505e-06
1.3737873658105388e-05
2.529720213810614e-05
4.259554489961273e-05
6.8148698317474e-05
0.00010033317882086571
0.0001473728906001872
0.00020633466217285726
0.00026338286490161137
0.0003255959701976665
0.0003805268242024628
0.0004246029883244899
0.0004486638065378552
0.0004615887216103941
0.0004517127745900847
0.0004100704824177407
0.00037698337430484635
0.00032337199902546053
0.00026301854045484235
0.00020465087954285257
0.00014618083931128425
9.955558258524362e-05
6.772630565586521e-05
4.247895147680486e-05
2.502355518671069e-05
1.3716464136042907e-05
7.942615864888326e-06
4.832837716397772e-06
0.001127058521479487
0.0011270585214751673
0.0011270585214831234
0.0011270585214788094
0.0018492931594013757
0.0018492931594262835
0.00184929315942099
0.001849293159445896
0.0018731832443942514
0.001873183244417271
0.0018731832444114163
0.001873183244434327
0.00015082377816402659
0.00015082377816327496
0.0001508237781649154
0.0001508237781641664
0.0006677731849547253
0.0006677731849658855
0.0006677731849648743
0.0006677731849760403
0.0007141912490481302
0.0007141912490532074
0.0007141912490519171
0.0007141912490569944
0.0013633322196583654
0.0013633322196565025
0.0013633322196543692
0.0013633322196525011
0.003320532656451425
0.003320532656400678
0.003320532656411159
0.0033205326563604393
0.003802047803976249
0.0038020478039761
0.0038020478039965332
0.00380204780399634
0.004278400703237973
0.0042784007032956916
0.004278400703332662
0.00427840070339031
0.0008892278539226295
0.0008892278539258091
0.0008892278539260874
0.0008892278539292254
0.0009405609053361025
0.0009405609053401365
0.0009405609053391239
0.0009405609053431415
0.00022241254041733066
0.000236032515860157
0.00022241254041282905
0.0002224125404214023
0.00023603251586157766
0.00023603251585794054
0.0002224125404168993
0.00023603251585936307
0.0016478242079225932
0.0016478242078995923
0.0016478242079363552
0.001647824207913321
0.0050142136493017495
0.005014213649409803
0.00501421364939518
0.005014213649503407
0.006322105048312667
0.00632210504834185
0.006322105048702835
0.006322105048731964
0.0016289408381735307
0.001628940838178866
0.001628940838178987
0.001628940838184361
2.7982297062145757e-05
2.798229706198527e-05
2.7982297062289305e-05
2.798229706212888e-05
0.0005715219636960149
0.0005715219636934256
0.0005715219636950199
0.0005715219636924119
0.0005552478752386936
0.0005552478752375248
0.0005552478752383308
0.0005552478752371444
0.000573081707769458
0.0005730817077634068
0.0005730817077752238
0.000573081707769176
0.002202208634149153
0.002202208634133487
0.0022022086341386684
0.002202208634122958
0.0006632984721303782
0.000663298472126801
0.0006632984721323768
0.0006632984721288099
0.002096734215522063
0.002096734215538599
0.0020967342155034977
0.002096734215520061
5.2186935157161186e-05
5.689713314827788e-05
5.2186935156389376e-05
5.218693515776262e-05
5.689713314817949e-05
5.689713314819771e-05
5.218693515699075e-05
5.689713314810075e-05
0.009783077607839993
0.009783077607584846
0.009783077608299114
0.009783077608044075
0.0019950167006212234
0.001995016700625656
0.0019950167006305233
0.001995016700634941
0.0006969247797095709
0.0006969247797099213
0.0006969247797106449
0.0006969247797109746
0.00024168001402256846
0.00024168001401823688
0.000241680014026508
0.0002416800140221758
0.00022583104186194464
0.00022583104186047343
0.0002258310418627615
0.00022583104186128423
0.0012104915061642966
0.0012104915061659216
0.001210491506167314
0.0012104915061689461
0.0011396405219802896
0.0011396405219871839
0.0011396405219858987
0.0011396405219927215
0.0010217894233623193
0.0010217894233494316
0.0010217894233743182
0.0010217894233613915
0.002553514083654884
0.002553514083670553
0.002553514083668929
0.002553514083684664
0.0006607084399843135
0.0006607084399839514
0.0006607084399876046
0.0006607084399872472
0.011371140920095422
0.011371140920399564
0.011371140920388179
0.011371140920692593
0.011786007716402563
0.011786007717364854
0.011786007717115712
0.011786007718077774
0.012570646608372158
0.012570646608197856
0.012570646608431492
0.012570646608257165
0.003131646935816906
0.0031316469358665462
0.00313164693590736
0.003131646935956994
0.0029542595602014173
0.002954259560238099
0.002954259560231218
0.0029542595602679695
0.0014968349623942394
0.0014968349624024074
0.0014968349623962383
0.0014968349624043564
0.001763552402426445
0.0017635524024289635
0.0017635524024261031
0.0017635524024285907
0.01469199155245633
0.014691991552631645
0.014691991553051233
0.014691991553226504
0.0004874638670991482
0.0004874638671004894
0.00048746386709993026
0.0004874638671012406
0.0005090016504945856
0.000509001650496019
0.0005090016504966026
0.0005090016504980465
0.000510848876143338
0.0005108488761297648
0.0005108488761547371
0.0005108488761411594
0.0011697748220613937
0.0011697748220479518
0.0011697748220693442
0.001169774822055886
0.00029422067478777306
0.0002942206747895045
0.0002942206747850087
0.0002942206747867483
0.0014398000599633418
0.0014398000599703342
0.0014398000599733268
0.0014398000599802946
0.0035209174442918435
0.003520917444333059
0.0035209174442360487
0.003520917444277322
0.0019993457274498447
0.001999345727469359
0.0019993457274837417
0.0019993457275032005
8.278858741875214e-05
8.278858741663518e-05
8.27885874206376e-05
8.27885874185209e-05
8.56045624673354e-05
8.56045624666096e-05
8.560456246767868e-05
8.560456246695278e-05
0.0003018683316763578
0.0003018683316776209
0.0003018683316779477
0.00030186833167921106
0.00030108968419348376
0.0003010896841939204
0.0003010896841938044
0.0003010896841942462
0.003918097264508035
0.003918097264478797
0.003918097264521838
0.0039180972644925595
0.0024389886261130776
0.0024389886261863823
0.002438988626158574
0.002438988626231882
8.058755788977578e-06
8.058755788920256e-06
8.058755789035556e-06
8.058755788978344e-06
0.0005671155978274276
0.0005671155978280555
0.000567115597827273
0.0005671155978278576
0.0011677033148615613
0.0011677033148602784
0.0011677033148567119
0.0011677033148553998
0.00113204184224212
0.001132041842241572
0.0011320418422443178
0.0011320418422437629
0.0002145557342755396
0.00021455573427287024
0.00021455573427812082
0.00021455573427545528
0.0012709724207494663
0.0012709724207668866
0.0012709724207603061
0.0012709724207777215
0.0004217841709418947
0.00042178417093824855
0.0004217841709442367
0.0004217841709405959
0.0011250421637966177
0.0011250421638029327
0.0011250421638008621
0.0011250421638070802
1.8399371406013875e-05
1.839937140596453e-05
1.8399371406011314e-05
1.8399371405962918e-05
2.184986295866933e-05
2.1849862958935498e-05
2.184986295835766e-05
2.1849862958624173e-05
0.0009594249458940598
0.0009594249458907136
0.0009594249458932517
0.0009594249458898486
0.0025026255856972035
0.00250262558572724
0.0025026255857409784
0.002502625585771021
0.018699949725724987
0.018699949726688425
0.018699949726536515
0.018699949727500022
0.0007360152224150545
0.0007360152224126696
0.0007360152224166252
0.0007360152224142443
0.0023386970330862996
0.0023386970330810976
0.0023386970330919036
0.002338697033086627
0.004896640705800972
0.00489664070586898
0.004896640705857925
0.0048966407059260865
0.0005341807493243806
0.0005341807493245682
0.0005341807493277501
0.000534180749327946
0.00013231615819277339
0.00013231615819007524
0.00013231615819523146
0.0001323161581925306
0.0001323035947890453
0.00013230359478765946
0.0001323035947898565
0.0001323035947884715
0.018543992175537607
0.018543992175768464
0.018543992177613523
0.018543992177844394
0.0016414086234733153
0.0016414086234790635
0.0016414086234785203
0.001641408623484272
0.001111968421971854
0.0011119684219788755
0.001111968421979078
0.0011119684219861312
0.002151191916803819
0.00215119191679563
0.002151191916798653
0.002151191916790508
6.66297698316092e-05
6.662976983142212e-05
6.662976983171354e-05
6.66297698315287e-05
0.019267568303881377
0.019267568302106262
0.019267568300436723
0.01926756829866142
0.0005060379088337284
0.0005060379088366177
0.0005060379088371691
0.000506037908840055
0.0005081858280394177
0.0005081858280394189
0.0005081858280399685
0.0005081858280399742
0.001606123259258679
0.0016061232592443036
0.0016061232592675103
0.0016061232592530792
0.00034696258602440996
0.0003469625860257687
0.00034696258602500253
0.00034696258602635107
0.00034017087785005387
0.00034017087784997266
0.0003401708778513875
0.0003401708778513104
0.004680995369963484
0.004680995370027076
0.004680995370036046
0.0046809953700997
0.0008878206714994101
0.000887820671488136
0.0008878206715065219
0.0008878206714952419
0.0015125957860661996
0.0015125957860609427
0.0015125957860581752
0.00151259578605292
0.0003344665024481784
0.0003344665024476215
0.0003344665024488352
0.00033446650244827727
0.0001385214789455231
0.00013852147894571136
0.00013852147894506211
0.00013852147894525462
0.0005734920397891487
0.0005734920397896554
0.0005734920397922719
0.0005734920397927714
0.02586976417658058
0.025869764179073433
0.0258697641748622
0.02586976417735502
0.0007095190221472915
0.0007095190221484753
0.0007095190221483628
0.0007095190221495473
0.001368426485825615
0.0013684264858328395
0.0013684264858322857
0.001368426485839425
0.0009280971828375794
0.0009280971828371553
0.000928097182836818
0.0009280971828363702
0.0008983489392307295
0.0008983489392211328
0.0008983489392395389
0.0008983489392299231
0.005442281084551492
0.005442281084604379
0.005442281084720203
0.005442281084772948
0.006304723637892606
0.0063047236378793265
0.00630472363788895
0.00630472363787565
0.00041856853346157745
0.0004185685334525327
0.00041856853346969124
0.0004185685334606368
0.0015005020971363742
0.001500502097153801
0.0015005020971466654
0.0015005020971640237
0.0024030704595247084
0.0024030704594694683
0.0024030704594800445
0.002403070459424768
5.016767212532298e-05
5.016767212555929e-05
5.0167672125021894e-05
5.0167672125259755e-05
4.0117485383232185e-05
4.01174853828843e-05
4.011748538335878e-05
4.011748538301115e-05
3.9890717818188596e-05
3.989071781823057e-05
3.989071781796691e-05
3.989071781800936e-05
0.005778023005344116
0.005778023005331821
0.005778023005418764
0.0057780230054063735
0.00274568952058242
0.0027456895206302632
0.0027456895206586754
0.0027456895207065074
0.002732001980899248
0.002732001980909345
0.0027320019809210583
0.00273200198093113
0.0017406463023783437
0.0017406463023769397
0.0017406463023763392
0.0017406463023748693
0.00675133830611461
0.006751338306103804
0.006751338306053712
0.006751338306042729
0.003063431714503986
0.003063431714545905
0.0030634317145398515
0.003063431714581892
0.00011202645831089549
0.00011202645830958997
0.00011202645831211649
0.00011202645831081382
0.0016053926567090905
0.001605392656708714
0.0016053926567094392
0.001605392656709063
0.002098488851819755
0.002098488851835617
0.002098488851840836
0.002098488851856722
0.0001126331824608863
0.00011263318245887051
0.00011263318246259572
0.00011263318246058167
0.0008502582895786952
0.0008502582895731154
0.00085025828958484
0.0008502582895792557
0.0008172503095427382
0.000817250309540607
0.0008172503095448643
0.0008172503095427628
0.000198607509844957
0.0001986075098434222
0.0001986075098463585
0.00019860750984482858
0.00019677867258467943
0.00019677867258394757
0.0001967786725848751
0.00019677867258414243
0.0014249159415763053
0.0014249159415828639
0.0014249159415835148
0.0014249159415901187
0.001302113659157019
0.0013021136591511067
0.0013021136591629095
0.0013021136591570023
0.0005226362585352685
0.0005226362585361592
0.0005226362585367787
0.0005226362585376515
1.0507994336036802e-05
1.0507994336092489e-05
1.0507994336080327e-05
1.0507994336135559e-05
1.0587202678913055e-05
1.0587202678817472e-05
1.0587202678805551e-05
1.058720267870989e-05
0.030256494944685214
0.030256494944783396
0.03025649494569758
0.030256494945795787
0.0001157178956299581
0.00011571789563081379
0.00011571789562875798
0.00011571789562961765
0.03142877427432765
0.03142877427148189
0.03142877427070625
0.03142877426786013
0.0019597997002833603
0.0019597997002996654
0.001959799700287655
0.0019597997003038803
0.0004211653585512565
0.00042116535854920626
0.0004211653585527281
0.00042116535855066045
0.0002472710355444284
0.0002472710355423373
0.0002472710355457411
0.00024727103554364303
0.0008264975996442876
0.0008264975996459381
0.0008264975996447545
0.0008264975996463447
0.0007626556523063439
0.0007626556522918417
0.0007626556523191094
0.0007626556523046039
0.0008578100608775453
0.0008578100608788424
0.0008578100608782911
0.0008578100608795621
0.0003945428609435382
0.0003945428609459654
0.00039454286093973607
0.0003945428609421781
0.001969686576200595
0.0019696865762032045
0.001969686576203765
0.001969686576206349
0.001470428959606748
0.0014704289596179413
0.001470428959621159
0.0014704289596321966
0.0003908721696758107
0.0003908721696824222
0.00039087216966840086
0.0003908721696750118
0.00022658674881319093
0.00022658674880806888
0.00022658674881801072
0.00022658674881288125
0.000500674067478357
0.0005006740674786402
0.000500674067481895
0.0005006740674821881
0.0036209760883136244
0.0036209760883557196
0.003620976088444318
0.0036209760884863907
0.0004746514844944526
0.00047465148449328927
0.0004746514844949431
0.0004746514844937764
0.0015268592081822676
0.0015268592081847737
0.0015268592081855482
0.0015268592081880438
0.002309428384113412
0.002309428384134785
0.0023094283841313392
0.0023094283841527527
0.0009800278663250955
0.0009800278663274341
0.0009800278663200804
0.0009800278663224062
0.03351403922251202
0.033514039220526835
0.033514039218346524
0.03351403921636115
0.0028062834794955584
0.0028062834794944126
0.0028062834794963017
0.0028062834794952856
0.0006791041346864894
0.0006791041346753423
0.0006791041346964379
0.0006791041346852812
0.000835410339554606
0.0008354103395553882
0.0008354103395586627
0.0008354103395594132
0.0012753893260637713
0.001275389326083936
0.001275389326074881
0.0012753893260950926
0.0007910356158791753
0.000791035615876407
0.0007910356158789878
0.0007910356158761853
0.0039999658917453775
0.003999965891755973
0.003999965891734285
0.003999965891744861
0.0011256875474173315
0.0011256875474288906
0.001125687547424842
0.00112568754743636
0.02825784712762167
0.028257847129249093
0.02825784712905322
0.028257847130681142
0.009803064759064624
0.009803064759254727
0.009803064759227511
0.009803064759417689
0.000713497297300214
0.0007134972972988469
0.0007134972973015236
0.0007134972973001085
0.0004468607642376223
0.00044686076423803596
0.00044686076423910515
0.0004468607642394881
0.0022512802168813974
0.0022512802169063974
0.0022512802169249776
0.002251280216949906
0.0065841618224566426
0.006584161822499058
0.006584161822541838
0.00658416182258443
0.0020643775245555427
0.0020643775245773864
0.0020643775245916237
0.0020643775246134677
0.0015212046185982256
0.0015212046186102114
0.0015212046186064234
0.0015212046186183186
0.008413831958810394
0.008413831959122063
0.008413831959083564
0.008413831959395233
0.001853644147556312
0.0018536441475491873
0.001853644147542073
0.0018536441475349046
0.00014584780767109995
0.0001458478076725426
0.00014584780767211205
0.00014584780767355293
0.00014638647332554963
0.00014638647332632193
0.00014638647332558568
0.00014638647332635622
0.011270162424964814
0.011270162424682297
0.011270162425093138
0.011270162424810605
0.0030626931565066557
0.0030626931564861487
0.0030626931564970176
0.0030626931564764134
0.0011598304374524253
0.001159830437446266
0.001159830437459493
0.0011598304374533003
0.006630370458545578
0.006630370458600725
0.006630370458778557
0.006630370458833408
0.00043289301253850355
0.00043289301253836586
0.0004328930125410423
0.00043289301254089834
0.0010015619359482332
0.0010015619359473049
0.0010015619359457172
0.0010015619359447772
0.04175225993922583
0.041752259940471645
0.04175225993920392
0.04175225994044971
0.0011640431353736897
0.001164043135377121
0.0011640431353760995
0.0011640431353795112
0.00020025813257571262
0.0002002581325774116
0.0002002581325730229
0.00020025813257472443
0.0003409411631575665
0.00034094116314960384
0.0003409411631645767
0.0003409411631566095
0.0013062817486162277
0.00130628174861981
0.0013062817486094516
0.0013062817486130076
0.004211065358209026
0.004211065358273225
0.004211065358268017
0.004211065358332339
0.007492153889535222
0.007492153889540862
0.007492153890008698
0.007492153890014508
0.0006365840448579339
0.0006365840448596474
0.0006365840448611205
0.0006365840448628689
0.0002719375614796082
0.0002719375614811383
0.00027193756148083956
0.00027193756148236395
0.00027132371263408674
0.0002713237126354282
0.0002713237126346149
0.0002713237126359597
0.0034510632784154685
0.003451063278482317
0.003451063278515378
0.00345106327858216
0.0026149280185508127
0.0026149280185840296
0.0026149280185035822
0.002614928018536817
0.001775774518130172
0.0017757745181486318
0.001775774518160362
0.0017757745181787028
0.0001363871959965115
0.00013638719599284345
0.0001363871959996786
0.00013619398712232773
0.00013638719599601368
0.00013619398712310103
0.00013619398712102948
0.00013619398712180113
0.0006431789919227009
0.000643178991926879
0.000643178991928193
0.0006431789919323058
0.0011589562572170363
0.0011589562572204143
0.0011589562572207259
0.0011589562572240704
0.03723200013921366
0.037232000139638816
0.037232000139816326