<VTKFile type="UnstructuredGrid" version="1.0" byte_order="LittleEndian" header_type="UInt64">
<UnstructuredGrid>
<Piece NumberOfPoints="16" NumberOfCells="16">
<Points>
<DataArray NumberOfComponents="3" type="Float64">
0.0 0.0 0.0
100.0 0.0 0.0
100.0 100.0 0.0
0.0 100.0 0.0
50.0 75.0 0.0
25.0 50.0 0.0
50.0 25.0 0.0
75.0 50.0 0.0
32.32233042914035 67.67766948846773 0.0
32.32233051288345 32.32233042778918 0.0
67.67766957630056 32.32233051697318 0.0
67.67766948437799 67.67766957494939 0.0
49.99999999982369 0.0 0.0
100.0 49.99999999982369 0.0
50.00000000025812 100.0 0.0
0.0 50.00000000025812 0.0
</DataArray>
</Points>
<Cells>
<DataArray type="Int32" Name="connectivity">
0 12 9
0 9 15
12 1 10
1 13 10
13 2 11
11 2 14
8 14 3
15 8 3
8 4 14
11 14 4
15 5 8
9 5 15
12 6 9
12 10 6
10 13 7
7 13 11
</DataArray>
<DataArray type="Int32" Name="offsets">
3
6
9
12
15
18
21
24
27
30
33
36
39
42
45
48
</DataArray>
<DataArray type="UInt8" Name="types">
5
5
5
5
5
5
5
5
5
5
5
5
5
5
5
5
</DataArray>
</Cells>
<PointData Scalars="solution">
<DataArray type="Float64" Name="Real part" format="ascii">
-1.0683076657184534e-09
-1.0683151877615303e-09
-1.0683380732345483e-09
-1.0683305512812862e-09
0.005195476272917631
0.005195476273112504
0.005195476273210613
0.00519547627301574
0.0011156643616814417
0.0011156643616779857
0.0011156643616790363
0.0011156643616824916
-0.0011156621724677808
-0.001115662172411472
-0.00111566217238315
-0.0011156621724394593
</DataArray>
<DataArray type="Float64" Name="Imag part" format="ascii">
0.0
0.0
0.0
0.0
0.0
0.0
0.0
0.0
0.0
0.0
0.0
0.0
0.0
0.0
0.0
0.0
</DataArray>
</PointData>
</Piece>
</UnstructuredGrid>
</VTKFile>
