<VTKFile type="UnstructuredGrid" version="1.0" byte_order="LittleEndian" header_type="UInt64">
<UnstructuredGrid>
<Piece NumberOfPoints="192" NumberOfCells="288">
<Points>
<DataArray NumberOfComponents="3" type="Float64">
0.0 0.0 0.0
1.0 0.0 0.0
1.0 1.0 0.0
0.0 1.0 0.0
0.2 0.3 0.0
0.1 0.2 0.0
0.2 0.1 0.0
0.3 0.2 0.0
0.2 0.6 0.0
0.1 0.5 0.0
0.2 0.4 0.0
0.3 0.5 0.0
0.2 0.9 0.0
0.1 0.8 0.0
0.2 0.7000000000000001 0.0
0.3 0.8 0.0
0.5 0.3 0.0
0.4 0.2 0.0
0.5 0.1 0.0
0.6 0.2 0.0
0.5 0.6 0.0
0.4 0.5 0.0
0.5 0.4 0.0
0.6 0.5 0.0
0.5 0.9 0.0
0.4 0.8 0.0
0.5 0.7000000000000001 0.0
0.6 0.8 0.0
0.8 0.3 0.0
0.7000000000000001 0.2 0.0
0.8 0.1 0.0
0.9 0.2 0.0
0.8 0.6 0.0
0.7000000000000001 0.5 0.0
0.8 0.4 0.0
0.9 0.5 0.0
0.8 0.9 0.0
0.7000000000000001 0.8 0.0
0.8 0.7000000000000001 0.0
0.9 0.8 0.0
0.1292893217338323 0.2707106779711419 0.0
0.1292893220423002 0.1292893217203903 0.0
0.2707106782879816 0.129289322050672 0.0
0.2707106779777093 0.2707106782596003 0.0
0.129289321731774 0.5707106779690835 0.0
0.1292893220624422 0.4292893217002483 0.0
0.2707106782468238 0.4292893220095143 0.0
0.2707106779840935 0.5707106782532161 0.0
0.129289321731774 0.8707106779690835 0.0
0.1292893220665904 0.7292893216961001 0.0
0.2707106782359923 0.7292893219986828 0.0
0.09999999999981467 0.0 0.0
0.1999999999995579 0.0 0.0
0.2999999999992664 0.0 0.0
0.3999999999989749 0.0 0.0
0.4999999999986943 0.0 0.0
0.5999999999989468 0.0 0.0
0.69999999999921 0.0 0.0
0.7999999999994734 0.0 0.0
0.8999999999997368 0.0 0.0
0.4292893217450282 0.2707106779823378 0.0
0.4292893220417481 0.1292893217209424 0.0
0.5707106783039 0.1292893220665904 0.0
0.5707106780013173 0.2707106782359923 0.0
0.4292893217564195 0.570710677993729 0.0
0.4292893220171026 0.4292893217455879 0.0
0.570710678322168 0.4292893220848585 0.0
0.5707106779259731 0.5707106783113365 0.0
0.4292893217564195 0.870710677993729 0.0
0.4292893220848585 0.729289321677832 0.0
1.0 0.09999999999981467 0.0
1.0 0.1999999999995579 0.0
1.0 0.2999999999992664 0.0
1.0 0.3999999999989749 0.0
1.0 0.4999999999986943 0.0
1.0 0.5999999999989468 0.0
1.0 0.69999999999921 0.0
1.0 0.7999999999994734 0.0
1.0 0.8999999999997368 0.0
0.5707106779259731 0.8707106783113365 0.0
0.729289321746784 0.2707106779840935 0.0
0.7292893220309166 0.129289321731774 0.0
0.8707106783039 0.1292893220665904 0.0
0.8707106780013173 0.2707106782359923 0.0
0.7292893216886636 0.5707106779259731 0.0
0.7292893220062711 0.4292893217564195 0.0
0.8707106783221681 0.4292893220848585 0.0
0.8707106779259731 0.5707106783113365 0.0
0.7292893216886636 0.8707106779259731 0.0
0.8999999999995836 1.0 0.0
0.7999999999999998 1.0 0.0
0.7000000000006934 1.0 0.0
0.6000000000013869 1.0 0.0
0.5000000000020587 1.0 0.0
0.4000000000016644 1.0 0.0
0.3000000000012483 1.0 0.0
0.2000000000008322 1.0 0.0
0.100000000000416 1.0 0.0
0.8707106783113365 0.729289322074027 0.0
0.8707106779259731 0.8707106783113365 0.0
0.0 0.8999999999995836 0.0
0.0 0.7999999999999998 0.0
0.0 0.7000000000006934 0.0
0.0 0.6000000000013869 0.0
0.0 0.5000000000020587 0.0
0.0 0.4000000000016644 0.0
0.0 0.3000000000012483 0.0
0.0 0.2000000000008322 0.0
0.0 0.100000000000416 0.0
0.2707106779840935 0.8707106782532161 0.0
0.5707106783113365 0.729289322074027 0.0
0.729289322074027 0.7292893216886636 0.0
0.6499999999999999 0.6500000000000002 0.0
0.6499999999999998 0.3500000000000002 0.0
0.35 0.6500000000000002 0.0
0.35 0.35 0.0
0.6499999999288236 0.9207106780905924 0.0
0.9207106780908229 0.6500000000711764 0.0
0.9207106780855792 0.3500000000592608 0.0
0.3500000000609008 0.079289321904283 0.0
0.07928932190175618 0.6499999999381598 0.0
0.6500000000618404 0.07928932190152563 0.0
0.07928932190149598 0.349999999939306 0.0
0.3499999999520729 0.9207106780985459 0.0
0.6489787327735455 0.5608629663325588 0.0
0.5621320345069523 0.650000000213529 0.0
0.7391370336674412 0.6489787327735456 0.0
0.6500000000795998 0.7256127602903333 0.0
0.5608629663571515 0.3510212672069191 0.0
0.351021267206919 0.7391370336428486 0.0
0.3499999998463696 0.2621320344674731 0.0
0.2608629663104093 0.3489787329886298 0.0
0.4378679655641797 0.6499999998180132 0.0
0.650000000181987 0.4378679655641795 0.0
0.6489787328144996 0.2608629663079378 0.0
0.2608629663079379 0.6510212671855004 0.0
0.3499999999450278 0.5743872397183348 0.0
0.350000000054266 0.4256127602820716 0.0
0.4391370336808168 0.3489787328066055 0.0
0.7256127602816652 0.3499999999450279 0.0
0.6499999999534143 0.851237962678469 0.0
0.8512379626785587 0.6500000000465856 0.0
0.1487620373218806 0.3499999999602752 0.0
0.1487620373221951 0.6499999999595248 0.0
0.6500000000404751 0.1487620373221055 0.0
0.3500000000398603 0.1487620373204483 0.0
0.3499999999686313 0.8512379626825459 0.0
0.8512379626853126 0.350000000038787 0.0
0.9414213560773782 0.5585786439221856 0.0
0.7414213560777714 0.941421356077484 0.0
0.9414213560776092 0.8585786439222812 0.0
0.5585786439160249 0.05857864391646128 0.0
0.05857864391635561 0.7414213560839318 0.0
0.8585786439161206 0.05857864391622988 0.0
0.05857864391320349 0.4414213560874859 0.0
0.2585786439028763 0.05857864390318022 0.0
0.05857864389615175 0.1414213561040206 0.0
0.4414213561340198 0.9414213561333303 0.0
0.9414213561398892 0.2585786438598071 0.0
0.1414213561134509 0.9414213561132787 0.0
0.941421356406206 0.4414213564057813 0.0
0.5585786436032361 0.9414213563973383 0.0
0.9414213563971633 0.7414213563968366 0.0
0.8585786436030173 0.9414213563968099 0.0
0.9414213563908257 0.1414213563907492 0.0
0.1414213563706265 0.05857864362929677 0.0
0.4414213563700675 0.05857864362950815 0.0
0.05857864363837539 0.5585786436389499 0.0
0.7414213563611228 0.05857864363855039 0.0
0.05857864363890387 0.858578643638731 0.0
0.05857864364012118 0.2585786436406383 0.0
0.2585786436513676 0.9414213563491493 0.0
0.07154822024742413 0.9284517796201128 0.0
0.07154822038481551 0.07154822024235394 0.0
0.9284517796010304 0.928451779771694 0.0
0.9284517797684304 0.07154822039556402 0.0
0.6853553390280561 0.6060660171675583 0.0
0.6060660171675586 0.6146446609719433 0.0
0.6060660173393932 0.6853553392415861 0.0
0.6931068160627061 0.6818760666821495 0.0
0.6146446609959892 0.3939339828553159 0.0
0.3939339828553159 0.685355339004011 0.0
0.6853553391859974 0.3939339827088639 0.0
0.6818760666917045 0.3068931839371239 0.0
0.6060660171960749 0.3146446609352753 0.0
0.3939339827088639 0.6146446608140027 0.0
0.3146446608078526 0.3060660172955527 0.0
0.3853553390385169 0.3060660171719204 0.0
0.3068931840394238 0.381876066830115 0.0
0.3931068160572688 0.3818760666935823 0.0
0.3068931839371239 0.6181239333082952 0.0
0.3146446609352747 0.693933982803925 0.0
</DataArray>
</Points>
<Cells>
<DataArray type="Int32" Name="connectivity">
26 20 125
23 33 124
37 27 127
32 38 126
33 23 133
20 26 132
10 4 131
22 16 128
7 17 130
14 8 135
19 29 134
25 15 129
16 22 138
21 11 137
11 21 136
28 34 139
27 37 140
38 32 141
4 10 142
8 14 143
29 19 144
17 7 145
34 28 147
15 25 146
86 118 160
79 116 161
98 117 162
61 119 166
44 120 167
81 121 168
40 122 170
109 123 171
117 87 148
116 88 149
121 62 151
120 49 152
119 42 155
122 45 154
118 83 158
123 68 157
116 79 140
117 98 141
118 86 147
119 61 145
120 44 143
121 81 144
122 40 142
123 109 146
88 116 140
87 117 141
49 120 143
62 121 144
45 122 142
42 119 145
83 118 147
68 123 146
110 26 125
67 23 124
84 32 126
111 37 127
66 22 128
69 25 129
20 67 125
33 84 124
27 110 127
38 111 126
43 7 130
46 10 131
64 20 132
85 33 133
50 14 135
63 19 134
47 11 136
65 21 137
16 63 128
15 50 129
60 16 138
23 66 133
26 69 132
80 28 139
17 60 130
4 43 131
22 65 138
11 46 137
21 64 136
34 85 139
8 47 135
29 80 134
91 92 116
75 76 117
72 73 118
102 103 120
53 54 119
56 57 121
105 106 122
94 95 123
35 74 148
36 90 149
39 77 150
18 55 151
24 93 157
6 52 155
13 101 152
30 58 153
9 104 154
31 71 158
5 107 156
12 96 159
74 35 160
90 36 163
93 24 161
77 39 162
71 31 164
52 6 165
55 18 166
101 13 169
104 9 167
58 30 168
107 5 170
96 12 171
112 127 178
127 112 179
139 113 183
113 139 182
137 115 189
115 137 188
136 114 190
114 136 185
79 27 140
98 38 141
86 34 147
61 17 145
44 8 143
81 29 144
40 4 142
109 15 146
37 88 140
32 87 141
10 45 142
14 49 143
19 62 144
7 42 145
28 83 147
25 68 146
118 73 160
116 92 161
117 76 162
119 54 166
120 103 167
121 57 168
122 106 170
123 95 171
72 118 158
75 117 148
91 116 149
53 119 155
94 123 157
56 121 151
102 120 152
105 122 154
78 2 174
59 1 175
108 0 173
97 3 172
2 89 174
1 70 175
0 51 173
3 100 172
66 128 180
69 129 181
180 128 184
124 176 177
67 124 177
176 126 179
84 126 176
127 110 178
111 127 179
181 129 191
80 139 183
131 43 186
139 85 182
65 137 189
47 136 190
60 138 187
187 138 189
137 46 188
131 186 188
136 64 185
63 134 184
134 183 184
50 135 191
135 190 191
74 75 148
77 78 150
90 91 149
55 56 151
58 59 153
101 102 152
104 105 154
52 53 155
107 108 156
93 94 157
96 97 159
71 72 158
95 96 171
100 101 169
106 107 170
57 58 168
103 104 167
51 52 165
54 55 166
70 71 164
89 90 163
76 77 162
92 93 161
73 74 160
87 35 148
88 36 149
99 39 150
62 18 151
49 13 152
82 30 153
45 9 154
42 6 155
41 5 156
68 24 157
48 12 159
83 31 158
35 86 160
24 79 161
39 98 162
36 99 163
31 82 164
6 41 165
18 61 166
9 44 167
30 81 168
13 48 169
5 40 170
12 109 171
99 150 174
41 156 173
48 159 172
82 153 175
169 48 172
165 41 173
163 99 174
164 82 175
113 180 184
125 67 177
124 84 176
110 125 178
176 112 177
112 176 179
126 111 179
114 181 191
128 63 184
129 50 191
133 66 180
132 69 181
43 130 186
130 60 187
138 65 189
134 80 183
115 187 189
183 113 184
46 131 188
135 47 190
186 115 188
85 133 182
64 132 185
190 114 191
125 177 178
177 112 178
133 180 182
180 113 182
186 130 187
115 186 187
132 181 185
181 114 185
150 78 174
153 59 175
156 108 173
159 97 172
100 169 172
51 165 173
70 164 175
89 163 174
</DataArray>
<DataArray type="Int32" Name="offsets">
3
6
9
12
15
18
21
24
27
30
33
36
39
42
45
48
51
54
57
60
63
66
69
72
75
78
81
84
87
90
93
96
99
102
105
108
111
114
117
120
123
126
129
132
135
138
141
144
147
150
153
156
159
162
165
168
171
174
177
180
183
186
189
192
195
198
201
204
207
210
213
216
219
222
225
228
231
234
237
240
243
246
249
252
255
258
261
264
267
270
273
276
279
282
285
288
291
294
297
300
303
306
309
312
315
318
321
324
327
330
333
336
339
342
345
348
351
354
357
360
363
366
369
372
375
378
381
384
387
390
393
396
399
402
405
408
411
414
417
420
423
426
429
432
435
438
441
444
447
450
453
456
459
462
465
468
471
474
477
480
483
486
489
492
495
498
501
504
507
510
513
516
519
522
525
528
531
534
537
540
543
546
549
552
555
558
561
564
567
570
573
576
579
582
585
588
591
594
597
600
603
606
609
612
615
618
621
624
627
630
633
636
639
642
645
648
651
654
657
660
663
666
669
672
675
678
681
684
687
690
693
696
699
702
705
708
711
714
717
720
723
726
729
732
735
738
741
744
747
750
753
756
759
762
765
768
771
774
777
780
783
786
789
792
795
798
801
804
807
810
813
816
819
822
825
828
831
834
837
840
843
846
849
852
855
858
861
864
</DataArray>
<DataArray type="UInt8" Name="types">
5
5
5
5
5
5
5
5
5
5
5
5
5
5
5
5
5
5
5
5
5
5
5
5
5
5
5
5
5
5
5
5
5
5
5
5
5
5
5
5
5
5
5
5
5
5
5
5
5
5
5
5
5
5
5
5
5
5
5
5
5
5
5
5
5
5
5
5
5
5
5
5
5
5
5
5
5
5
5
5
5
5
5
5
5
5
5
5
5
5
5
5
5
5
5
5
5
5
5
5
5
5
5
5
5
5
5
5
5
5
5
5
5
5
5
5
5
5
5
5
5
5
5
5
5
5
5
5
5
5
5
5
5
5
5
5
5
5
5
5
5
5
5
5
5
5
5
5
5
5
5
5
5
5
5
5
5
5
5
5
5
5
5
5
5
5
5
5
5
5
5
5
5
5
5
5
5
5
5
5
5
5
5
5
5
5
5
5
5
5
5
5
5
5
5
5
5
5
5
5
5
5
5
5
5
5
5
5
5
5
5
5
5
5
5
5
5
5
5
5
5
5
5
5
5
5
5
5
5
5
5
5
5
5
5
5
5
5
5
5
5
5
5
5
5
5
5
5
5
5
5
5
5
5
5
5
5
5
5
5
5
5
5
5
5
5
5
5
5
5
5
5
5
5
5
5
5
5
5
5
5
5
5
5
5
5
5
5
</DataArray>
</Cells>
<PointData Scalars="solution">
<DataArray type="Float64" Name="Real part" format="ascii">
13.099530058710771
13.099578150024623
13.099518619498127
13.099569725341638
14.114827828250485
13.571298079043624
13.570934210233023
14.113803616042187
14.136093749605195
13.792083357145994
14.136419324827347
14.415894468806936
13.571092522010376
13.571223910394595
14.114354053353312
14.114676738836087
14.419026016188534
14.134722172998215
13.791576807113024
14.135407344376514
14.442831675271632
14.442238378745635
14.443147768875317
14.442717575035184
13.791528348735257
14.134852781172183
14.418438425242092
14.135699223080591
14.113734496418651
14.11536344888338
13.571255243356381
13.5710822799736
14.135355189490754
14.418848006649027
14.135869953665116
13.791787031962874
13.570978565793265
14.113580337010703
14.115304511534275
13.5712296833425
13.813619993777575
13.480279340064268
13.812873447521326
14.246566249827428
13.884600005470885
13.884767592484524
14.338055551248027
14.337975030748142
13.480319881610573
13.81340808417887
14.24540397467509
13.193849027805713
13.34317667607381
13.469935256601282
13.536521012264227
13.558408171842803
13.536858670517285
13.470383663610914
13.343484430094996
13.19396392265753
14.338030474781284
13.88388012423669
13.884332145041041
14.337781620940246
14.430741455162096
14.430178929520432
14.430865393011517
14.430690865503859
13.88403655088133
14.337810603293574
13.193922566253663
13.343327228141069
13.470176967678134
13.536800636052725
13.558608344223858
13.536945469307382
13.470400897967854
13.343461888045942
13.193913440803772
13.884111380394131
14.246355534156747
13.813551748459021
13.480329109876417
13.813102103984084
14.337634295993418
14.337886033082244
13.884304510256475
13.884395654733918
13.812959068663519
13.19385196975483
13.343223039998637
13.470030864998243
13.536607906472542
13.558354951876034
13.536645611584188
13.4701351942931
13.343326907731873
13.193917389224332
13.813542459711627
13.480267415778695
13.193951650377395
13.34346675518756
13.470420145754849
13.537082558250665
13.558893440112692
13.537195366116412
13.470557485159008
13.343537307166086
13.193940101496722
13.813202310676902
14.337685035770413
14.246225518453876
14.171504648206627
14.17166628612168
14.171218724135537
14.170546997372318
13.609876577005702
13.61029117095335
13.610043537113244
13.60973311594287
13.610334707523675
13.61025914139365
13.610509785357353
13.609957508543056
14.28362147209928
14.280745052307878
14.126102764945733
14.1279444356592
14.283840235193088
14.125183394566077
14.123797750634807
14.125332542280528
14.280566166348633
14.280910719834191
14.1262138718726
14.124785522561705
14.256173909947298
14.255970932690838
14.283320573161552
14.128103587398204
13.86982127304765
13.870365871291687
13.87061946976822
13.87033842457867
13.870375265438048
13.869567622327468
13.869923115601832
13.869985648470347
13.63335633795355
13.511914715085382
13.31861226701506
13.633233035832061
13.512264385009209
13.318655393125857
13.633644776361292
13.511836730640843
13.318651888603277
13.633058828886742
13.51204456975838
13.318575763476492
13.633270756695277
13.633056070499379
13.512284072897822
13.318497374394656
13.318577824764299
13.31848224900688
13.632987741908085
13.633559357965662
13.512287672029416
13.318639158508306
13.512395184421697
13.512048145495617
13.206153999349775
13.206114012338066
13.206102247246722
13.206162737846201
14.203994479721251
14.254431357427311
14.208836049699519
14.141788506897361
14.254606966919285
14.204149803977826
14.209008649737696
14.14192879056893
14.204157975330919
14.258328945427053
14.140626299630105
14.190108475021658
14.186175172739807
14.25050899325894
14.186164096180296
14.139000590944928
</DataArray>
<DataArray type="Float64" Name="Imag part" format="ascii">
0.0
0.0
0.0
0.0
0.0
0.0
0.0
0.0
0.0
0.0
0.0
0.0
0.0
0.0
0.0
0.0
0.0
0.0
0.0
0.0
0.0
0.0
0.0
0.0
0.0
0.0
0.0
0.0
0.0
0.0
0.0
0.0
0.0
0.0
0.0
0.0
0.0
0.0
0.0
0.0
0.0
0.0
0.0
0.0
0.0
0.0
0.0
0.0
0.0
0.0
0.0
0.0
0.0
0.0
0.0
0.0
0.0
0.0
0.0
0.0
0.0
0.0
0.0
0.0
0.0
0.0
0.0
0.0
0.0
0.0
0.0
0.0
0.0
0.0
0.0
0.0
0.0
0.0
0.0
0.0
0.0
0.0
0.0
0.0
0.0
0.0
0.0
0.0
0.0
0.0
0.0
0.0
0.0
0.0
0.0
0.0
0.0
0.0
0.0
0.0
0.0
0.0
0.0
0.0
0.0
0.0
0.0
0.0
0.0
0.0
0.0
0.0
0.0
0.0
0.0
0.0
0.0
0.0
0.0
0.0
0.0
0.0
0.0
0.0
0.0
0.0
0.0
0.0
0.0
0.0
0.0
0.0
0.0
0.0
0.0
0.0
0.0
0.0
0.0
0.0
0.0
0.0
0.0
0.0
0.0
0.0
0.0
0.0
0.0
0.0
0.0
0.0
0.0
0.0
0.0
0.0
0.0
0.0
0.0
0.0
0.0
0.0
0.0
0.0
0.0
0.0
0.0
0.0
0.0
0.0
0.0
0.0
0.0
0.0
0.0
0.0
0.0
0.0
0.0
0.0
0.0
0.0
0.0
0.0
0.0
0.0
0.0
0.0
0.0
0.0
0.0
0.0
</DataArray>
</PointData>
</Piece>
</UnstructuredGrid>
</VTKFile>
