<VTKFile type="UnstructuredGrid" version="1.0" byte_order="LittleEndian" header_type="UInt64">
<UnstructuredGrid>
<Piece NumberOfPoints="192" NumberOfCells="288">
<Points>
<DataArray NumberOfComponents="3" type="Float64">
0.0 0.0 0.0
1.0 0.0 0.0
1.0 1.0 0.0
0.0 1.0 0.0
0.2 0.3 0.0
0.1 0.2 0.0
0.2 0.1 0.0
0.3 0.2 0.0
0.2 0.6 0.0
0.1 0.5 0.0
0.2 0.4 0.0
0.3 0.5 0.0
0.2 0.9 0.0
0.1 0.8 0.0
0.2 0.7000000000000001 0.0
0.3 0.8 0.0
0.5 0.3 0.0
0.4 0.2 0.0
0.5 0.1 0.0
0.6 0.2 0.0
0.5 0.6 0.0
0.4 0.5 0.0
0.5 0.4 0.0
0.6 0.5 0.0
0.5 0.9 0.0
0.4 0.8 0.0
0.5 0.7000000000000001 0.0
0.6 0.8 0.0
0.8 0.3 0.0
0.7000000000000001 0.2 0.0
0.8 0.1 0.0
0.9 0.2 0.0
0.8 0.6 0.0
0.7000000000000001 0.5 0.0
0.8 0.4 0.0
0.9 0.5 0.0
0.8 0.9 0.0
0.7000000000000001 0.8 0.0
0.8 0.7000000000000001 0.0
0.9 0.8 0.0
0.1292893217338323 0.2707106779711419 0.0
0.1292893220423002 0.1292893217203903 0.0
0.2707106782879816 0.129289322050672 0.0
0.2707106779777093 0.2707106782596003 0.0
0.129289321731774 0.5707106779690835 0.0
0.1292893220624422 0.4292893217002483 0.0
0.2707106782468238 0.4292893220095143 0.0
0.2707106779840935 0.5707106782532161 0.0
0.129289321731774 0.8707106779690835 0.0
0.1292893220665904 0.7292893216961001 0.0
0.2707106782359923 0.7292893219986828 0.0
0.09999999999981467 0.0 0.0
0.1999999999995579 0.0 0.0
0.2999999999992664 0.0 0.0
0.3999999999989749 0.0 0.0
0.4999999999986943 0.0 0.0
0.5999999999989468 0.0 0.0
0.69999999999921 0.0 0.0
0.7999999999994734 0.0 0.0
0.8999999999997368 0.0 0.0
0.4292893217450282 0.2707106779823378 0.0
0.4292893220417481 0.1292893217209424 0.0
0.5707106783039 0.1292893220665904 0.0
0.5707106780013173 0.2707106782359923 0.0
0.4292893217564195 0.570710677993729 0.0
0.4292893220171026 0.4292893217455879 0.0
0.570710678322168 0.4292893220848585 0.0
0.5707106779259731 0.5707106783113365 0.0
0.4292893217564195 0.870710677993729 0.0
0.4292893220848585 0.729289321677832 0.0
1.0 0.09999999999981467 0.0
1.0 0.1999999999995579 0.0
1.0 0.2999999999992664 0.0
1.0 0.3999999999989749 0.0
1.0 0.4999999999986943 0.0
1.0 0.5999999999989468 0.0
1.0 0.69999999999921 0.0
1.0 0.7999999999994734 0.0
1.0 0.8999999999997368 0.0
0.5707106779259731 0.8707106783113365 0.0
0.729289321746784 0.2707106779840935 0.0
0.7292893220309166 0.129289321731774 0.0
0.8707106783039 0.1292893220665904 0.0
0.8707106780013173 0.2707106782359923 0.0
0.7292893216886636 0.5707106779259731 0.0
0.7292893220062711 0.4292893217564195 0.0
0.8707106783221681 0.4292893220848585 0.0
0.8707106779259731 0.5707106783113365 0.0
0.7292893216886636 0.8707106779259731 0.0
0.8999999999995836 1.0 0.0
0.7999999999999998 1.0 0.0
0.7000000000006934 1.0 0.0
0.6000000000013869 1.0 0.0
0.5000000000020587 1.0 0.0
0.4000000000016644 1.0 0.0
0.3000000000012483 1.0 0.0
0.2000000000008322 1.0 0.0
0.100000000000416 1.0 0.0
0.8707106783113365 0.729289322074027 0.0
0.8707106779259731 0.8707106783113365 0.0
0.0 0.8999999999995836 0.0
0.0 0.7999999999999998 0.0
0.0 0.7000000000006934 0.0
0.0 0.6000000000013869 0.0
0.0 0.5000000000020587 0.0
0.0 0.4000000000016644 0.0
0.0 0.3000000000012483 0.0
0.0 0.2000000000008322 0.0
0.0 0.100000000000416 0.0
0.2707106779840935 0.8707106782532161 0.0
0.5707106783113365 0.729289322074027 0.0
0.729289322074027 0.7292893216886636 0.0
0.6499999999999999 0.6500000000000002 0.0
0.6499999999999998 0.3500000000000002 0.0
0.35 0.6500000000000002 0.0
0.35 0.35 0.0
0.6499999999288236 0.9207106780905924 0.0
0.9207106780908229 0.6500000000711764 0.0
0.9207106780855792 0.3500000000592608 0.0
0.3500000000609008 0.079289321904283 0.0
0.07928932190175618 0.6499999999381598 0.0
0.6500000000618404 0.07928932190152563 0.0
0.07928932190149598 0.349999999939306 0.0
0.3499999999520729 0.9207106780985459 0.0
0.6489787327735455 0.5608629663325588 0.0
0.5621320345069523 0.650000000213529 0.0
0.7391370336674412 0.6489787327735456 0.0
0.6500000000795998 0.7256127602903333 0.0
0.5608629663571515 0.3510212672069191 0.0
0.351021267206919 0.7391370336428486 0.0
0.3499999998463696 0.2621320344674731 0.0
0.2608629663104093 0.3489787329886298 0.0
0.4378679655641797 0.6499999998180132 0.0
0.650000000181987 0.4378679655641795 0.0
0.6489787328144996 0.2608629663079378 0.0
0.2608629663079379 0.6510212671855004 0.0
0.3499999999450278 0.5743872397183348 0.0
0.350000000054266 0.4256127602820716 0.0
0.4391370336808168 0.3489787328066055 0.0
0.7256127602816652 0.3499999999450279 0.0
0.6499999999534143 0.851237962678469 0.0
0.8512379626785587 0.6500000000465856 0.0
0.1487620373218806 0.3499999999602752 0.0
0.1487620373221951 0.6499999999595248 0.0
0.6500000000404751 0.1487620373221055 0.0
0.3500000000398603 0.1487620373204483 0.0
0.3499999999686313 0.8512379626825459 0.0
0.8512379626853126 0.350000000038787 0.0
0.9414213560773782 0.5585786439221856 0.0
0.7414213560777714 0.941421356077484 0.0
0.9414213560776092 0.8585786439222812 0.0
0.5585786439160249 0.05857864391646128 0.0
0.05857864391635561 0.7414213560839318 0.0
0.8585786439161206 0.05857864391622988 0.0
0.05857864391320349 0.4414213560874859 0.0
0.2585786439028763 0.05857864390318022 0.0
0.05857864389615175 0.1414213561040206 0.0
0.4414213561340198 0.9414213561333303 0.0
0.9414213561398892 0.2585786438598071 0.0
0.1414213561134509 0.9414213561132787 0.0
0.941421356406206 0.4414213564057813 0.0
0.5585786436032361 0.9414213563973383 0.0
0.9414213563971633 0.7414213563968366 0.0
0.8585786436030173 0.9414213563968099 0.0
0.9414213563908257 0.1414213563907492 0.0
0.1414213563706265 0.05857864362929677 0.0
0.4414213563700675 0.05857864362950815 0.0
0.05857864363837539 0.5585786436389499 0.0
0.7414213563611228 0.05857864363855039 0.0
0.05857864363890387 0.858578643638731 0.0
0.05857864364012118 0.2585786436406383 0.0
0.2585786436513676 0.9414213563491493 0.0
0.07154822024742413 0.9284517796201128 0.0
0.07154822038481551 0.07154822024235394 0.0
0.9284517796010304 0.928451779771694 0.0
0.9284517797684304 0.07154822039556402 0.0
0.6853553390280561 0.6060660171675583 0.0
0.6060660171675586 0.6146446609719433 0.0
0.6060660173393932 0.6853553392415861 0.0
0.6931068160627061 0.6818760666821495 0.0
0.6146446609959892 0.3939339828553159 0.0
0.3939339828553159 0.685355339004011 0.0
0.6853553391859974 0.3939339827088639 0.0
0.6818760666917045 0.3068931839371239 0.0
0.6060660171960749 0.3146446609352753 0.0
0.3939339827088639 0.6146446608140027 0.0
0.3146446608078526 0.3060660172955527 0.0
0.3853553390385169 0.3060660171719204 0.0
0.3068931840394238 0.381876066830115 0.0
0.3931068160572688 0.3818760666935823 0.0
0.3068931839371239 0.6181239333082952 0.0
0.3146446609352747 0.693933982803925 0.0
</DataArray>
</Points>
<Cells>
<DataArray type="Int32" Name="connectivity">
26 20 125
23 33 124
37 27 127
32 38 126
33 23 133
20 26 132
10 4 131
22 16 128
7 17 130
14 8 135
19 29 134
25 15 129
16 22 138
21 11 137
11 21 136
28 34 139
27 37 140
38 32 141
4 10 142
8 14 143
29 19 144
17 7 145
34 28 147
15 25 146
86 118 160
79 116 161
98 117 162
61 119 166
44 120 167
81 121 168
40 122 170
109 123 171
117 87 148
116 88 149
121 62 151
120 49 152
119 42 155
122 45 154
118 83 158
123 68 157
116 79 140
117 98 141
118 86 147
119 61 145
120 44 143
121 81 144
122 40 142
123 109 146
88 116 140
87 117 141
49 120 143
62 121 144
45 122 142
42 119 145
83 118 147
68 123 146
110 26 125
67 23 124
84 32 126
111 37 127
66 22 128
69 25 129
20 67 125
33 84 124
27 110 127
38 111 126
43 7 130
46 10 131
64 20 132
85 33 133
50 14 135
63 19 134
47 11 136
65 21 137
16 63 128
15 50 129
60 16 138
23 66 133
26 69 132
80 28 139
17 60 130
4 43 131
22 65 138
11 46 137
21 64 136
34 85 139
8 47 135
29 80 134
91 92 116
75 76 117
72 73 118
102 103 120
53 54 119
56 57 121
105 106 122
94 95 123
35 74 148
36 90 149
39 77 150
18 55 151
24 93 157
6 52 155
13 101 152
30 58 153
9 104 154
31 71 158
5 107 156
12 96 159
74 35 160
90 36 163
93 24 161
77 39 162
71 31 164
52 6 165
55 18 166
101 13 169
104 9 167
58 30 168
107 5 170
96 12 171
112 127 178
127 112 179
139 113 183
113 139 182
137 115 189
115 137 188
136 114 190
114 136 185
79 27 140
98 38 141
86 34 147
61 17 145
44 8 143
81 29 144
40 4 142
109 15 146
37 88 140
32 87 141
10 45 142
14 49 143
19 62 144
7 42 145
28 83 147
25 68 146
118 73 160
116 92 161
117 76 162
119 54 166
120 103 167
121 57 168
122 106 170
123 95 171
72 118 158
75 117 148
91 116 149
53 119 155
94 123 157
56 121 151
102 120 152
105 122 154
78 2 174
59 1 175
108 0 173
97 3 172
2 89 174
1 70 175
0 51 173
3 100 172
66 128 180
69 129 181
180 128 184
124 176 177
67 124 177
176 126 179
84 126 176
127 110 178
111 127 179
181 129 191
80 139 183
131 43 186
139 85 182
65 137 189
47 136 190
60 138 187
187 138 189
137 46 188
131 186 188
136 64 185
63 134 184
134 183 184
50 135 191
135 190 191
74 75 148
77 78 150
90 91 149
55 56 151
58 59 153
101 102 152
104 105 154
52 53 155
107 108 156
93 94 157
96 97 159
71 72 158
95 96 171
100 101 169
106 107 170
57 58 168
103 104 167
51 52 165
54 55 166
70 71 164
89 90 163
76 77 162
92 93 161
73 74 160
87 35 148
88 36 149
99 39 150
62 18 151
49 13 152
82 30 153
45 9 154
42 6 155
41 5 156
68 24 157
48 12 159
83 31 158
35 86 160
24 79 161
39 98 162
36 99 163
31 82 164
6 41 165
18 61 166
9 44 167
30 81 168
13 48 169
5 40 170
12 109 171
99 150 174
41 156 173
48 159 172
82 153 175
169 48 172
165 41 173
163 99 174
164 82 175
113 180 184
125 67 177
124 84 176
110 125 178
176 112 177
112 176 179
126 111 179
114 181 191
128 63 184
129 50 191
133 66 180
132 69 181
43 130 186
130 60 187
138 65 189
134 80 183
115 187 189
183 113 184
46 131 188
135 47 190
186 115 188
85 133 182
64 132 185
190 114 191
125 177 178
177 112 178
133 180 182
180 113 182
186 130 187
115 186 187
132 181 185
181 114 185
150 78 174
153 59 175
156 108 173
159 97 172
100 169 172
51 165 173
70 164 175
89 163 174
</DataArray>
<DataArray type="Int32" Name="offsets">
3
6
9
12
15
18
21
24
27
30
33
36
39
42
45
48
51
54
57
60
63
66
69
72
75
78
81
84
87
90
93
96
99
102
105
108
111
114
117
120
123
126
129
132
135
138
141
144
147
150
153
156
159
162
165
168
171
174
177
180
183
186
189
192
195
198
201
204
207
210
213
216
219
222
225
228
231
234
237
240
243
246
249
252
255
258
261
264
267
270
273
276
279
282
285
288
291
294
297
300
303
306
309
312
315
318
321
324
327
330
333
336
339
342
345
348
351
354
357
360
363
366
369
372
375
378
381
384
387
390
393
396
399
402
405
408
411
414
417
420
423
426
429
432
435
438
441
444
447
450
453
456
459
462
465
468
471
474
477
480
483
486
489
492
495
498
501
504
507
510
513
516
519
522
525
528
531
534
537
540
543
546
549
552
555
558
561
564
567
570
573
576
579
582
585
588
591
594
597
600
603
606
609
612
615
618
621
624
627
630
633
636
639
642
645
648
651
654
657
660
663
666
669
672
675
678
681
684
687
690
693
696
699
702
705
708
711
714
717
720
723
726
729
732
735
738
741
744
747
750
753
756
759
762
765
768
771
774
777
780
783
786
789
792
795
798
801
804
807
810
813
816
819
822
825
828
831
834
837
840
843
846
849
852
855
858
861
864
</DataArray>
<DataArray type="UInt8" Name="types">
5
5
5
5
5
5
5
5
5
5
5
5
5
5
5
5
5
5
5
5
5
5
5
5
5
5
5
5
5
5
5
5
5
5
5
5
5
5
5
5
5
5
5
5
5
5
5
5
5
5
5
5
5
5
5
5
5
5
5
5
5
5
5
5
5
5
5
5
5
5
5
5
5
5
5
5
5
5
5
5
5
5
5
5
5
5
5
5
5
5
5
5
5
5
5
5
5
5
5
5
5
5
5
5
5
5
5
5
5
5
5
5
5
5
5
5
5
5
5
5
5
5
5
5
5
5
5
5
5
5
5
5
5
5
5
5
5
5
5
5
5
5
5
5
5
5
5
5
5
5
5
5
5
5
5
5
5
5
5
5
5
5
5
5
5
5
5
5
5
5
5
5
5
5
5
5
5
5
5
5
5
5
5
5
5
5
5
5
5
5
5
5
5
5
5
5
5
5
5
5
5
5
5
5
5
5
5
5
5
5
5
5
5
5
5
5
5
5
5
5
5
5
5
5
5
5
5
5
5
5
5
5
5
5
5
5
5
5
5
5
5
5
5
5
5
5
5
5
5
5
5
5
5
5
5
5
5
5
5
5
5
5
5
5
5
5
5
5
5
5
5
5
5
5
5
5
5
5
5
5
5
5
5
5
5
5
5
5
</DataArray>
</Cells>
<PointData Scalars="solution">
<DataArray type="Float64" Name="Real part" format="ascii">
12.82834224683334
12.828385972754273
12.82832405845903
12.828378586196562
13.830578895277213
13.296194134514117
13.295836770700253
13.829562833454016
13.85137246827361
13.512235911999811
13.85169540041106
14.12550146357228
13.295989985265823
13.296119242501504
13.830108359347244
13.83042798332067
14.128611789878196
13.850009235045919
13.511738384115656
13.85068897104814
14.151893971845107
14.151270621563938
14.152207335299577
14.151774073186399
13.51168589934959
13.85013857086861
14.128035142137549
13.850960699922306
13.829489091272537
13.831112484753385
13.296150322373437
13.29597692096629
13.850634733344505
14.128438381958683
13.85112848518205
13.511938488764438
13.295873104831873
13.829337235966808
13.831051715277809
13.296121261213782
13.534313741430905
13.20704993667528
13.533577720262304
13.959734980954538
13.603667998445648
13.60383397795156
14.04926419887508
14.049184541896953
13.207087330547353
13.534103348656059
13.958577211677648
12.921698177823666
13.068586331578011
13.192447949210424
13.257486744865105
13.279071598600655
13.257818513505576
13.192887852235826
13.06888645803085
12.921807766272988
14.04923653464758
13.602958379469008
13.603404493232452
14.04897711237841
14.139980307323233
14.139413709635596
14.140083509479533
14.139911270243157
13.603110171164259
14.049017457299204
12.921766416926332
13.0687288471266
13.19267870478828
13.25775428770128
13.279261763501134
13.257898472773483
13.19290025102452
13.068860260994537
12.921754582936128
13.60317872003092
13.959535234437585
13.534246763606605
13.207095300624486
13.53379576896869
14.048830932051414
14.049116995010857
13.603367831842096
13.603462056850613
13.533654588357976
12.92169401341155
13.068624570833721
13.19253462532921
13.257565646872349
13.279014584859562
13.257606168523505
13.192642034790289
13.068731369185583
12.9217626922549
13.53423361985165
13.20703148512475
12.921796331576234
13.068868862190907
13.192922786525259
13.258037543409365
13.27954763320989
13.258149218716856
13.19305917126739
13.068940120921289
12.921787414531781
13.53390035704021
14.048919514076232
13.959406273778939
13.882434910282306
13.882594516171878
13.882147901395518
13.881480850033197
13.330404824608319
13.330815864055676
13.330568797836008
13.330271007641898
13.330862228029906
13.330788988356128
13.331035726219877
13.33048973439153
13.993270882965538
13.990424697545532
13.839095798387994
13.840496892580004
13.99348817595432
13.838178337159922
13.836766543193855
13.838348968174907
13.99024741643423
13.99058634613789
13.839206871234069
13.83780521219866
13.965978170553576
13.965775219285545
13.9929966569856
13.840653713859092
13.587795103217765
13.588339438170898
13.588593751231144
13.58831506331586
13.588352474301209
13.587553262833499
13.587903359317973
13.587956664285349
13.353723636230969
13.23503044966216
13.045387045900357
13.353608150010489
13.235379731863961
13.045433096957279
13.354012656793508
13.234961152548616
13.045432318754893
13.353433242969686
13.235159089362744
13.045355243610954
13.353637785054461
13.353427958794352
13.235395736350327
13.045273706255049
13.045355438221778
13.045265944935899
13.353366803408253
13.353928114175915
13.23540352215046
13.04541754031229
13.235509992216304
13.235166780232198
12.934021756504317
12.933985014873409
12.933966603238314
12.93402935650888
13.914853136804725
13.964219574864352
13.919720616987046
13.853994055975996
13.964392642007263
13.915021296952716
13.919890219046412
13.854133016635604
13.915015290672542
13.968138926036781
13.852875672156664
13.901286682032623
13.897415300151556
13.960363334939426
13.897404378672109
13.851257018403173
</DataArray>
<DataArray type="Float64" Name="Imag part" format="ascii">
0.0
0.0
0.0
0.0
0.0
0.0
0.0
0.0
0.0
0.0
0.0
0.0
0.0
0.0
0.0
0.0
0.0
0.0
0.0
0.0
0.0
0.0
0.0
0.0
0.0
0.0
0.0
0.0
0.0
0.0
0.0
0.0
0.0
0.0
0.0
0.0
0.0
0.0
0.0
0.0
0.0
0.0
0.0
0.0
0.0
0.0
0.0
0.0
0.0
0.0
0.0
0.0
0.0
0.0
0.0
0.0
0.0
0.0
0.0
0.0
0.0
0.0
0.0
0.0
0.0
0.0
0.0
0.0
0.0
0.0
0.0
0.0
0.0
0.0
0.0
0.0
0.0
0.0
0.0
0.0
0.0
0.0
0.0
0.0
0.0
0.0
0.0
0.0
0.0
0.0
0.0
0.0
0.0
0.0
0.0
0.0
0.0
0.0
0.0
0.0
0.0
0.0
0.0
0.0
0.0
0.0
0.0
0.0
0.0
0.0
0.0
0.0
0.0
0.0
0.0
0.0
0.0
0.0
0.0
0.0
0.0
0.0
0.0
0.0
0.0
0.0
0.0
0.0
0.0
0.0
0.0
0.0
0.0
0.0
0.0
0.0
0.0
0.0
0.0
0.0
0.0
0.0
0.0
0.0
0.0
0.0
0.0
0.0
0.0
0.0
0.0
0.0
0.0
0.0
0.0
0.0
0.0
0.0
0.0
0.0
0.0
0.0
0.0
0.0
0.0
0.0
0.0
0.0
0.0
0.0
0.0
0.0
0.0
0.0
0.0
0.0
0.0
0.0
0.0
0.0
0.0
0.0
0.0
0.0
0.0
0.0
0.0
0.0
0.0
0.0
0.0
0.0
</DataArray>
</PointData>
</Piece>
</UnstructuredGrid>
</VTKFile>
